********************************************************************************
*                       GENERAL UTILITY LATTICE PROGRAM                        *
*                                 Julian Gale                                  *
*                      Nanochemistry Research Institute                        *
*             Curtin University of Technology, Western Australia               *
********************************************************************************
* Version = 3.4.7 * Last modified =  21st July 2009                            *
********************************************************************************
*  fit          - perform fitting run                                          *
*  optimise     - perform optimisation run after fitting                       *
*  property     - calculate properties for final geometry                      *
*  fbfgs        - use full numerical Hessian in BFGS for fitting               *
********************************************************************************

  Job Started  at 14:43.58 21st July       2010                               

  Number of CPUs =     1


  Total number of configurations input = 219

********************************************************************************
*  Input for Configuration =   1                                               *
********************************************************************************

  Formula = Sb2Te3                                                      

  Number of irreducible atoms/shells =       5


  Total number atoms/shells =       5

  Dimensionality = 3               :  Bulk   



  Cartesian lattice vectors (Angstroms) :

       -2.504286    0.000000   10.443767
        1.252143   -2.168775   10.443767
        1.252143    2.168775   10.443767

  Cell parameters (Angstroms/Degrees):

  a =      10.7398    alpha =  23.3006
  b =      10.7398    beta  =  23.3006
  c =      10.7398    gamma =  23.3006

  Initial cell volume =         170.167643 Angs**3

  Temperature of configuration =  0.000     K 

  Pressure of configuration =         0.000 GPa 

  Fractional coordinates of asymmetric unit :

--------------------------------------------------------------------------------
   No.  Atomic       x           y          z         Charge      Occupancy
        Label      (Frac)      (Frac)     (Frac)        (e)         (Frac)  
--------------------------------------------------------------------------------
      1 Sb    c    0.369021    0.369021    0.369021      0.0000    1.000000    
      2 Sb    c    0.603203    0.603203    0.603203      0.0000    1.000000    
      3 Te1   c    0.000000    0.000000    0.000000      0.0000    1.000000    
      4 Te2   c    0.784571    0.784571    0.784571      0.0000    1.000000    
      5 Te2   c    0.215429    0.215429    0.215429      0.0000    1.000000    
--------------------------------------------------------------------------------



********************************************************************************
*  Input for Configuration =   2                                               *
********************************************************************************

  Formula = Sb2Te3                                                      

  Number of irreducible atoms/shells =       5


  Total number atoms/shells =       5

  Dimensionality = 3               :  Bulk   



  Cartesian lattice vectors (Angstroms) :

       -2.504286    0.000000   10.443767
        1.252143   -2.168775   10.443767
        1.252143    2.168775   10.443767

  Cell parameters (Angstroms/Degrees):

  a =      10.7398    alpha =  23.3006
  b =      10.7398    beta  =  23.3006
  c =      10.7398    gamma =  23.3006

  Initial cell volume =         170.167643 Angs**3

  Temperature of configuration =  0.000     K 

  Pressure of configuration =         0.000 GPa 

  Fractional coordinates of asymmetric unit :

--------------------------------------------------------------------------------
   No.  Atomic       x           y          z         Charge      Occupancy
        Label      (Frac)      (Frac)     (Frac)        (e)         (Frac)  
--------------------------------------------------------------------------------
      1 Sb    c    0.372989    0.372989    0.372989      0.0000    1.000000    
      2 Sb    c    0.603203    0.603203    0.603203      0.0000    1.000000    
      3 Te1   c    0.000000    0.000000    0.000000      0.0000    1.000000    
      4 Te2   c    0.784571    0.784571    0.784571      0.0000    1.000000    
      5 Te2   c    0.215429    0.215429    0.215429      0.0000    1.000000    
--------------------------------------------------------------------------------



********************************************************************************
*  Input for Configuration =   3                                               *
********************************************************************************

  Formula = Sb2Te3                                                      

  Number of irreducible atoms/shells =       5


  Total number atoms/shells =       5

  Dimensionality = 3               :  Bulk   



  Cartesian lattice vectors (Angstroms) :

       -2.504286    0.000000   10.443767
        1.252143   -2.168775   10.443767
        1.252143    2.168775   10.443767

  Cell parameters (Angstroms/Degrees):

  a =      10.7398    alpha =  23.3006
  b =      10.7398    beta  =  23.3006
  c =      10.7398    gamma =  23.3006

  Initial cell volume =         170.167643 Angs**3

  Temperature of configuration =  0.000     K 

  Pressure of configuration =         0.000 GPa 

  Fractional coordinates of asymmetric unit :

--------------------------------------------------------------------------------
   No.  Atomic       x           y          z         Charge      Occupancy
        Label      (Frac)      (Frac)     (Frac)        (e)         (Frac)  
--------------------------------------------------------------------------------
      1 Sb    c    0.376957    0.376957    0.376957      0.0000    1.000000    
      2 Sb    c    0.603203    0.603203    0.603203      0.0000    1.000000    
      3 Te1   c    0.000000    0.000000    0.000000      0.0000    1.000000    
      4 Te2   c    0.784571    0.784571    0.784571      0.0000    1.000000    
      5 Te2   c    0.215429    0.215429    0.215429      0.0000    1.000000    
--------------------------------------------------------------------------------



********************************************************************************
*  Input for Configuration =   4                                               *
********************************************************************************

  Formula = Sb2Te3                                                      

  Number of irreducible atoms/shells =       5


  Total number atoms/shells =       5

  Dimensionality = 3               :  Bulk   



  Cartesian lattice vectors (Angstroms) :

       -2.504286    0.000000   10.443767
        1.252143   -2.168775   10.443767
        1.252143    2.168775   10.443767

  Cell parameters (Angstroms/Degrees):

  a =      10.7398    alpha =  23.3006
  b =      10.7398    beta  =  23.3006
  c =      10.7398    gamma =  23.3006

  Initial cell volume =         170.167643 Angs**3

  Temperature of configuration =  0.000     K 

  Pressure of configuration =         0.000 GPa 

  Fractional coordinates of asymmetric unit :

--------------------------------------------------------------------------------
   No.  Atomic       x           y          z         Charge      Occupancy
        Label      (Frac)      (Frac)     (Frac)        (e)         (Frac)  
--------------------------------------------------------------------------------
      1 Sb    c    0.380925    0.380925    0.380925      0.0000    1.000000    
      2 Sb    c    0.603203    0.603203    0.603203      0.0000    1.000000    
      3 Te1   c    0.000000    0.000000    0.000000      0.0000    1.000000    
      4 Te2   c    0.784571    0.784571    0.784571      0.0000    1.000000    
      5 Te2   c    0.215429    0.215429    0.215429      0.0000    1.000000    
--------------------------------------------------------------------------------



********************************************************************************
*  Input for Configuration =   5                                               *
********************************************************************************

  Formula = Sb2Te3                                                      

  Number of irreducible atoms/shells =       5


  Total number atoms/shells =       5

  Dimensionality = 3               :  Bulk   



  Cartesian lattice vectors (Angstroms) :

       -2.504286    0.000000   10.443767
        1.252143   -2.168775   10.443767
        1.252143    2.168775   10.443767

  Cell parameters (Angstroms/Degrees):

  a =      10.7398    alpha =  23.3006
  b =      10.7398    beta  =  23.3006
  c =      10.7398    gamma =  23.3006

  Initial cell volume =         170.167643 Angs**3

  Temperature of configuration =  0.000     K 

  Pressure of configuration =         0.000 GPa 

  Fractional coordinates of asymmetric unit :

--------------------------------------------------------------------------------
   No.  Atomic       x           y          z         Charge      Occupancy
        Label      (Frac)      (Frac)     (Frac)        (e)         (Frac)  
--------------------------------------------------------------------------------
      1 Sb    c    0.384893    0.384893    0.384893      0.0000    1.000000    
      2 Sb    c    0.603203    0.603203    0.603203      0.0000    1.000000    
      3 Te1   c    0.000000    0.000000    0.000000      0.0000    1.000000    
      4 Te2   c    0.784571    0.784571    0.784571      0.0000    1.000000    
      5 Te2   c    0.215429    0.215429    0.215429      0.0000    1.000000    
--------------------------------------------------------------------------------



********************************************************************************
*  Input for Configuration =   6                                               *
********************************************************************************

  Formula = Sb2Te3                                                      

  Number of irreducible atoms/shells =       5


  Total number atoms/shells =       5

  Dimensionality = 3               :  Bulk   



  Cartesian lattice vectors (Angstroms) :

       -2.504286    0.000000   10.443767
        1.252143   -2.168775   10.443767
        1.252143    2.168775   10.443767

  Cell parameters (Angstroms/Degrees):

  a =      10.7398    alpha =  23.3006
  b =      10.7398    beta  =  23.3006
  c =      10.7398    gamma =  23.3006

  Initial cell volume =         170.167643 Angs**3

  Temperature of configuration =  0.000     K 

  Pressure of configuration =         0.000 GPa 

  Fractional coordinates of asymmetric unit :

--------------------------------------------------------------------------------
   No.  Atomic       x           y          z         Charge      Occupancy
        Label      (Frac)      (Frac)     (Frac)        (e)         (Frac)  
--------------------------------------------------------------------------------
      1 Sb    c    0.388861    0.388861    0.388861      0.0000    1.000000    
      2 Sb    c    0.603203    0.603203    0.603203      0.0000    1.000000    
      3 Te1   c    0.000000    0.000000    0.000000      0.0000    1.000000    
      4 Te2   c    0.784571    0.784571    0.784571      0.0000    1.000000    
      5 Te2   c    0.215429    0.215429    0.215429      0.0000    1.000000    
--------------------------------------------------------------------------------



********************************************************************************
*  Input for Configuration =   7                                               *
********************************************************************************

  Formula = Sb2Te3                                                      

  Number of irreducible atoms/shells =       5


  Total number atoms/shells =       5

  Dimensionality = 3               :  Bulk   



  Cartesian lattice vectors (Angstroms) :

       -2.504286    0.000000   10.443767
        1.252143   -2.168775   10.443767
        1.252143    2.168775   10.443767

  Cell parameters (Angstroms/Degrees):

  a =      10.7398    alpha =  23.3006
  b =      10.7398    beta  =  23.3006
  c =      10.7398    gamma =  23.3006

  Initial cell volume =         170.167643 Angs**3

  Temperature of configuration =  0.000     K 

  Pressure of configuration =         0.000 GPa 

  Fractional coordinates of asymmetric unit :

--------------------------------------------------------------------------------
   No.  Atomic       x           y          z         Charge      Occupancy
        Label      (Frac)      (Frac)     (Frac)        (e)         (Frac)  
--------------------------------------------------------------------------------
      1 Sb    c    0.392829    0.392829    0.392829      0.0000    1.000000    
      2 Sb    c    0.603203    0.603203    0.603203      0.0000    1.000000    
      3 Te1   c    0.000000    0.000000    0.000000      0.0000    1.000000    
      4 Te2   c    0.784571    0.784571    0.784571      0.0000    1.000000    
      5 Te2   c    0.215429    0.215429    0.215429      0.0000    1.000000    
--------------------------------------------------------------------------------



********************************************************************************
*  Input for Configuration =   8                                               *
********************************************************************************

  Formula = Sb2Te3                                                      

  Number of irreducible atoms/shells =       5


  Total number atoms/shells =       5

  Dimensionality = 3               :  Bulk   



  Cartesian lattice vectors (Angstroms) :

       -2.504286    0.000000   10.443767
        1.252143   -2.168775   10.443767
        1.252143    2.168775   10.443767

  Cell parameters (Angstroms/Degrees):

  a =      10.7398    alpha =  23.3006
  b =      10.7398    beta  =  23.3006
  c =      10.7398    gamma =  23.3006

  Initial cell volume =         170.167643 Angs**3

  Temperature of configuration =  0.000     K 

  Pressure of configuration =         0.000 GPa 

  Fractional coordinates of asymmetric unit :

--------------------------------------------------------------------------------
   No.  Atomic       x           y          z         Charge      Occupancy
        Label      (Frac)      (Frac)     (Frac)        (e)         (Frac)  
--------------------------------------------------------------------------------
      1 Sb    c    0.396797    0.396797    0.396797      0.0000    1.000000    
      2 Sb    c    0.603203    0.603203    0.603203      0.0000    1.000000    
      3 Te1   c    0.000000    0.000000    0.000000      0.0000    1.000000    
      4 Te2   c    0.784571    0.784571    0.784571      0.0000    1.000000    
      5 Te2   c    0.215429    0.215429    0.215429      0.0000    1.000000    
--------------------------------------------------------------------------------



********************************************************************************
*  Input for Configuration =   9                                               *
********************************************************************************

  Formula = Sb2Te3                                                      

  Number of irreducible atoms/shells =       5


  Total number atoms/shells =       5

  Dimensionality = 3               :  Bulk   



  Cartesian lattice vectors (Angstroms) :

       -2.504286    0.000000   10.443767
        1.252143   -2.168775   10.443767
        1.252143    2.168775   10.443767

  Cell parameters (Angstroms/Degrees):

  a =      10.7398    alpha =  23.3006
  b =      10.7398    beta  =  23.3006
  c =      10.7398    gamma =  23.3006

  Initial cell volume =         170.167643 Angs**3

  Temperature of configuration =  0.000     K 

  Pressure of configuration =         0.000 GPa 

  Fractional coordinates of asymmetric unit :

--------------------------------------------------------------------------------
   No.  Atomic       x           y          z         Charge      Occupancy
        Label      (Frac)      (Frac)     (Frac)        (e)         (Frac)  
--------------------------------------------------------------------------------
      1 Sb    c    0.400765    0.400765    0.400765      0.0000    1.000000    
      2 Sb    c    0.603203    0.603203    0.603203      0.0000    1.000000    
      3 Te1   c    0.000000    0.000000    0.000000      0.0000    1.000000    
      4 Te2   c    0.784571    0.784571    0.784571      0.0000    1.000000    
      5 Te2   c    0.215429    0.215429    0.215429      0.0000    1.000000    
--------------------------------------------------------------------------------



********************************************************************************
*  Input for Configuration =  10                                               *
********************************************************************************

  Formula = Sb2Te3                                                      

  Number of irreducible atoms/shells =       5


  Total number atoms/shells =       5

  Dimensionality = 3               :  Bulk   



  Cartesian lattice vectors (Angstroms) :

       -2.504286    0.000000   10.443767
        1.252143   -2.168775   10.443767
        1.252143    2.168775   10.443767

  Cell parameters (Angstroms/Degrees):

  a =      10.7398    alpha =  23.3006
  b =      10.7398    beta  =  23.3006
  c =      10.7398    gamma =  23.3006

  Initial cell volume =         170.167643 Angs**3

  Temperature of configuration =  0.000     K 

  Pressure of configuration =         0.000 GPa 

  Fractional coordinates of asymmetric unit :

--------------------------------------------------------------------------------
   No.  Atomic       x           y          z         Charge      Occupancy
        Label      (Frac)      (Frac)     (Frac)        (e)         (Frac)  
--------------------------------------------------------------------------------
      1 Sb    c    0.404733    0.404733    0.404733      0.0000    1.000000    
      2 Sb    c    0.603203    0.603203    0.603203      0.0000    1.000000    
      3 Te1   c    0.000000    0.000000    0.000000      0.0000    1.000000    
      4 Te2   c    0.784571    0.784571    0.784571      0.0000    1.000000    
      5 Te2   c    0.215429    0.215429    0.215429      0.0000    1.000000    
--------------------------------------------------------------------------------



********************************************************************************
*  Input for Configuration =  11                                               *
********************************************************************************

  Formula = Sb2Te3                                                      

  Number of irreducible atoms/shells =       5


  Total number atoms/shells =       5

  Dimensionality = 3               :  Bulk   



  Cartesian lattice vectors (Angstroms) :

       -2.504286    0.000000   10.443767
        1.252143   -2.168775   10.443767
        1.252143    2.168775   10.443767

  Cell parameters (Angstroms/Degrees):

  a =      10.7398    alpha =  23.3006
  b =      10.7398    beta  =  23.3006
  c =      10.7398    gamma =  23.3006

  Initial cell volume =         170.167643 Angs**3

  Temperature of configuration =  0.000     K 

  Pressure of configuration =         0.000 GPa 

  Fractional coordinates of asymmetric unit :

--------------------------------------------------------------------------------
   No.  Atomic       x           y          z         Charge      Occupancy
        Label      (Frac)      (Frac)     (Frac)        (e)         (Frac)  
--------------------------------------------------------------------------------
      1 Sb    c    0.408700    0.408700    0.408700      0.0000    1.000000    
      2 Sb    c    0.603203    0.603203    0.603203      0.0000    1.000000    
      3 Te1   c    0.000000    0.000000    0.000000      0.0000    1.000000    
      4 Te2   c    0.784571    0.784571    0.784571      0.0000    1.000000    
      5 Te2   c    0.215429    0.215429    0.215429      0.0000    1.000000    
--------------------------------------------------------------------------------



********************************************************************************
*  Input for Configuration =  12                                               *
********************************************************************************

  Formula = Sb2Te3                                                      

  Number of irreducible atoms/shells =       5


  Total number atoms/shells =       5

  Dimensionality = 3               :  Bulk   



  Cartesian lattice vectors (Angstroms) :

       -2.504286    0.000000   10.443767
        1.252143   -2.168775   10.443767
        1.252143    2.168775   10.443767

  Cell parameters (Angstroms/Degrees):

  a =      10.7398    alpha =  23.3006
  b =      10.7398    beta  =  23.3006
  c =      10.7398    gamma =  23.3006

  Initial cell volume =         170.167643 Angs**3

  Temperature of configuration =  0.000     K 

  Pressure of configuration =         0.000 GPa 

  Fractional coordinates of asymmetric unit :

--------------------------------------------------------------------------------
   No.  Atomic       x           y          z         Charge      Occupancy
        Label      (Frac)      (Frac)     (Frac)        (e)         (Frac)  
--------------------------------------------------------------------------------
      1 Sb    c    0.412668    0.412668    0.412668      0.0000    1.000000    
      2 Sb    c    0.603203    0.603203    0.603203      0.0000    1.000000    
      3 Te1   c    0.000000    0.000000    0.000000      0.0000    1.000000    
      4 Te2   c    0.784571    0.784571    0.784571      0.0000    1.000000    
      5 Te2   c    0.215429    0.215429    0.215429      0.0000    1.000000    
--------------------------------------------------------------------------------



********************************************************************************
*  Input for Configuration =  13                                               *
********************************************************************************

  Formula = Sb2Te3                                                      

  Number of irreducible atoms/shells =       5


  Total number atoms/shells =       5

  Dimensionality = 3               :  Bulk   



  Cartesian lattice vectors (Angstroms) :

       -2.504286    0.000000   10.443767
        1.252143   -2.168775   10.443767
        1.252143    2.168775   10.443767

  Cell parameters (Angstroms/Degrees):

  a =      10.7398    alpha =  23.3006
  b =      10.7398    beta  =  23.3006
  c =      10.7398    gamma =  23.3006

  Initial cell volume =         170.167643 Angs**3

  Temperature of configuration =  0.000     K 

  Pressure of configuration =         0.000 GPa 

  Fractional coordinates of asymmetric unit :

--------------------------------------------------------------------------------
   No.  Atomic       x           y          z         Charge      Occupancy
        Label      (Frac)      (Frac)     (Frac)        (e)         (Frac)  
--------------------------------------------------------------------------------
      1 Sb    c    0.416636    0.416636    0.416636      0.0000    1.000000    
      2 Sb    c    0.603203    0.603203    0.603203      0.0000    1.000000    
      3 Te1   c    0.000000    0.000000    0.000000      0.0000    1.000000    
      4 Te2   c    0.784571    0.784571    0.784571      0.0000    1.000000    
      5 Te2   c    0.215429    0.215429    0.215429      0.0000    1.000000    
--------------------------------------------------------------------------------



********************************************************************************
*  Input for Configuration =  14                                               *
********************************************************************************

  Formula = Sb2Te3                                                      

  Number of irreducible atoms/shells =       5


  Total number atoms/shells =       5

  Dimensionality = 3               :  Bulk   



  Cartesian lattice vectors (Angstroms) :

       -2.504286    0.000000   10.443767
        1.252143   -2.168775   10.443767
        1.252143    2.168775   10.443767

  Cell parameters (Angstroms/Degrees):

  a =      10.7398    alpha =  23.3006
  b =      10.7398    beta  =  23.3006
  c =      10.7398    gamma =  23.3006

  Initial cell volume =         170.167643 Angs**3

  Temperature of configuration =  0.000     K 

  Pressure of configuration =         0.000 GPa 

  Fractional coordinates of asymmetric unit :

--------------------------------------------------------------------------------
   No.  Atomic       x           y          z         Charge      Occupancy
        Label      (Frac)      (Frac)     (Frac)        (e)         (Frac)  
--------------------------------------------------------------------------------
      1 Sb    c    0.420604    0.420604    0.420604      0.0000    1.000000    
      2 Sb    c    0.603203    0.603203    0.603203      0.0000    1.000000    
      3 Te1   c    0.000000    0.000000    0.000000      0.0000    1.000000    
      4 Te2   c    0.784571    0.784571    0.784571      0.0000    1.000000    
      5 Te2   c    0.215429    0.215429    0.215429      0.0000    1.000000    
--------------------------------------------------------------------------------



********************************************************************************
*  Input for Configuration =  15                                               *
********************************************************************************

  Formula = Sb2Te3                                                      

  Number of irreducible atoms/shells =       5


  Total number atoms/shells =       5

  Dimensionality = 3               :  Bulk   



  Cartesian lattice vectors (Angstroms) :

       -2.504286    0.000000   10.443767
        1.252143   -2.168775   10.443767
        1.252143    2.168775   10.443767

  Cell parameters (Angstroms/Degrees):

  a =      10.7398    alpha =  23.3006
  b =      10.7398    beta  =  23.3006
  c =      10.7398    gamma =  23.3006

  Initial cell volume =         170.167643 Angs**3

  Temperature of configuration =  0.000     K 

  Pressure of configuration =         0.000 GPa 

  Fractional coordinates of asymmetric unit :

--------------------------------------------------------------------------------
   No.  Atomic       x           y          z         Charge      Occupancy
        Label      (Frac)      (Frac)     (Frac)        (e)         (Frac)  
--------------------------------------------------------------------------------
      1 Sb    c    0.424572    0.424572    0.424572      0.0000    1.000000    
      2 Sb    c    0.603203    0.603203    0.603203      0.0000    1.000000    
      3 Te1   c    0.000000    0.000000    0.000000      0.0000    1.000000    
      4 Te2   c    0.784571    0.784571    0.784571      0.0000    1.000000    
      5 Te2   c    0.215429    0.215429    0.215429      0.0000    1.000000    
--------------------------------------------------------------------------------



********************************************************************************
*  Input for Configuration =  16                                               *
********************************************************************************

  Formula = Sb2Te3                                                      

  Number of irreducible atoms/shells =       5


  Total number atoms/shells =       5

  Dimensionality = 3               :  Bulk   



  Cartesian lattice vectors (Angstroms) :

       -2.504286    0.000000   10.443767
        1.252143   -2.168775   10.443767
        1.252143    2.168775   10.443767

  Cell parameters (Angstroms/Degrees):

  a =      10.7398    alpha =  23.3006
  b =      10.7398    beta  =  23.3006
  c =      10.7398    gamma =  23.3006

  Initial cell volume =         170.167643 Angs**3

  Temperature of configuration =  0.000     K 

  Pressure of configuration =         0.000 GPa 

  Fractional coordinates of asymmetric unit :

--------------------------------------------------------------------------------
   No.  Atomic       x           y          z         Charge      Occupancy
        Label      (Frac)      (Frac)     (Frac)        (e)         (Frac)  
--------------------------------------------------------------------------------
      1 Sb    c    0.396797    0.396797    0.396797      0.0000    1.000000    
      2 Sb    c    0.560979    0.560979    0.560979      0.0000    1.000000    
      3 Te1   c    0.000000    0.000000    0.000000      0.0000    1.000000    
      4 Te2   c    0.784571    0.784571    0.784571      0.0000    1.000000    
      5 Te2   c    0.215429    0.215429    0.215429      0.0000    1.000000    
--------------------------------------------------------------------------------



********************************************************************************
*  Input for Configuration =  17                                               *
********************************************************************************

  Formula = Sb2Te3                                                      

  Number of irreducible atoms/shells =       5


  Total number atoms/shells =       5

  Dimensionality = 3               :  Bulk   



  Cartesian lattice vectors (Angstroms) :

       -2.504286    0.000000   10.443767
        1.252143   -2.168775   10.443767
        1.252143    2.168775   10.443767

  Cell parameters (Angstroms/Degrees):

  a =      10.7398    alpha =  23.3006
  b =      10.7398    beta  =  23.3006
  c =      10.7398    gamma =  23.3006

  Initial cell volume =         170.167643 Angs**3

  Temperature of configuration =  0.000     K 

  Pressure of configuration =         0.000 GPa 

  Fractional coordinates of asymmetric unit :

--------------------------------------------------------------------------------
   No.  Atomic       x           y          z         Charge      Occupancy
        Label      (Frac)      (Frac)     (Frac)        (e)         (Frac)  
--------------------------------------------------------------------------------
      1 Sb    c    0.396797    0.396797    0.396797      0.0000    1.000000    
      2 Sb    c    0.567011    0.567011    0.567011      0.0000    1.000000    
      3 Te1   c    0.000000    0.000000    0.000000      0.0000    1.000000    
      4 Te2   c    0.784571    0.784571    0.784571      0.0000    1.000000    
      5 Te2   c    0.215429    0.215429    0.215429      0.0000    1.000000    
--------------------------------------------------------------------------------



********************************************************************************
*  Input for Configuration =  18                                               *
********************************************************************************

  Formula = Sb2Te3                                                      

  Number of irreducible atoms/shells =       5


  Total number atoms/shells =       5

  Dimensionality = 3               :  Bulk   



  Cartesian lattice vectors (Angstroms) :

       -2.504286    0.000000   10.443767
        1.252143   -2.168775   10.443767
        1.252143    2.168775   10.443767

  Cell parameters (Angstroms/Degrees):

  a =      10.7398    alpha =  23.3006
  b =      10.7398    beta  =  23.3006
  c =      10.7398    gamma =  23.3006

  Initial cell volume =         170.167643 Angs**3

  Temperature of configuration =  0.000     K 

  Pressure of configuration =         0.000 GPa 

  Fractional coordinates of asymmetric unit :

--------------------------------------------------------------------------------
   No.  Atomic       x           y          z         Charge      Occupancy
        Label      (Frac)      (Frac)     (Frac)        (e)         (Frac)  
--------------------------------------------------------------------------------
      1 Sb    c    0.396797    0.396797    0.396797      0.0000    1.000000    
      2 Sb    c    0.573043    0.573043    0.573043      0.0000    1.000000    
      3 Te1   c    0.000000    0.000000    0.000000      0.0000    1.000000    
      4 Te2   c    0.784571    0.784571    0.784571      0.0000    1.000000    
      5 Te2   c    0.215429    0.215429    0.215429      0.0000    1.000000    
--------------------------------------------------------------------------------



********************************************************************************
*  Input for Configuration =  19                                               *
********************************************************************************

  Formula = Sb2Te3                                                      

  Number of irreducible atoms/shells =       5


  Total number atoms/shells =       5

  Dimensionality = 3               :  Bulk   



  Cartesian lattice vectors (Angstroms) :

       -2.504286    0.000000   10.443767
        1.252143   -2.168775   10.443767
        1.252143    2.168775   10.443767

  Cell parameters (Angstroms/Degrees):

  a =      10.7398    alpha =  23.3006
  b =      10.7398    beta  =  23.3006
  c =      10.7398    gamma =  23.3006

  Initial cell volume =         170.167643 Angs**3

  Temperature of configuration =  0.000     K 

  Pressure of configuration =         0.000 GPa 

  Fractional coordinates of asymmetric unit :

--------------------------------------------------------------------------------
   No.  Atomic       x           y          z         Charge      Occupancy
        Label      (Frac)      (Frac)     (Frac)        (e)         (Frac)  
--------------------------------------------------------------------------------
      1 Sb    c    0.396797    0.396797    0.396797      0.0000    1.000000    
      2 Sb    c    0.579075    0.579075    0.579075      0.0000    1.000000    
      3 Te1   c    0.000000    0.000000    0.000000      0.0000    1.000000    
      4 Te2   c    0.784571    0.784571    0.784571      0.0000    1.000000    
      5 Te2   c    0.215429    0.215429    0.215429      0.0000    1.000000    
--------------------------------------------------------------------------------



********************************************************************************
*  Input for Configuration =  20                                               *
********************************************************************************

  Formula = Sb2Te3                                                      

  Number of irreducible atoms/shells =       5


  Total number atoms/shells =       5

  Dimensionality = 3               :  Bulk   



  Cartesian lattice vectors (Angstroms) :

       -2.504286    0.000000   10.443767
        1.252143   -2.168775   10.443767
        1.252143    2.168775   10.443767

  Cell parameters (Angstroms/Degrees):

  a =      10.7398    alpha =  23.3006
  b =      10.7398    beta  =  23.3006
  c =      10.7398    gamma =  23.3006

  Initial cell volume =         170.167643 Angs**3

  Temperature of configuration =  0.000     K 

  Pressure of configuration =         0.000 GPa 

  Fractional coordinates of asymmetric unit :

--------------------------------------------------------------------------------
   No.  Atomic       x           y          z         Charge      Occupancy
        Label      (Frac)      (Frac)     (Frac)        (e)         (Frac)  
--------------------------------------------------------------------------------
      1 Sb    c    0.396797    0.396797    0.396797      0.0000    1.000000    
      2 Sb    c    0.585107    0.585107    0.585107      0.0000    1.000000    
      3 Te1   c    0.000000    0.000000    0.000000      0.0000    1.000000    
      4 Te2   c    0.784571    0.784571    0.784571      0.0000    1.000000    
      5 Te2   c    0.215429    0.215429    0.215429      0.0000    1.000000    
--------------------------------------------------------------------------------



********************************************************************************
*  Input for Configuration =  21                                               *
********************************************************************************

  Formula = Sb2Te3                                                      

  Number of irreducible atoms/shells =       5


  Total number atoms/shells =       5

  Dimensionality = 3               :  Bulk   



  Cartesian lattice vectors (Angstroms) :

       -2.504286    0.000000   10.443767
        1.252143   -2.168775   10.443767
        1.252143    2.168775   10.443767

  Cell parameters (Angstroms/Degrees):

  a =      10.7398    alpha =  23.3006
  b =      10.7398    beta  =  23.3006
  c =      10.7398    gamma =  23.3006

  Initial cell volume =         170.167643 Angs**3

  Temperature of configuration =  0.000     K 

  Pressure of configuration =         0.000 GPa 

  Fractional coordinates of asymmetric unit :

--------------------------------------------------------------------------------
   No.  Atomic       x           y          z         Charge      Occupancy
        Label      (Frac)      (Frac)     (Frac)        (e)         (Frac)  
--------------------------------------------------------------------------------
      1 Sb    c    0.396797    0.396797    0.396797      0.0000    1.000000    
      2 Sb    c    0.591139    0.591139    0.591139      0.0000    1.000000    
      3 Te1   c    0.000000    0.000000    0.000000      0.0000    1.000000    
      4 Te2   c    0.784571    0.784571    0.784571      0.0000    1.000000    
      5 Te2   c    0.215429    0.215429    0.215429      0.0000    1.000000    
--------------------------------------------------------------------------------



********************************************************************************
*  Input for Configuration =  22                                               *
********************************************************************************

  Formula = Sb2Te3                                                      

  Number of irreducible atoms/shells =       5


  Total number atoms/shells =       5

  Dimensionality = 3               :  Bulk   



  Cartesian lattice vectors (Angstroms) :

       -2.504286    0.000000   10.443767
        1.252143   -2.168775   10.443767
        1.252143    2.168775   10.443767

  Cell parameters (Angstroms/Degrees):

  a =      10.7398    alpha =  23.3006
  b =      10.7398    beta  =  23.3006
  c =      10.7398    gamma =  23.3006

  Initial cell volume =         170.167643 Angs**3

  Temperature of configuration =  0.000     K 

  Pressure of configuration =         0.000 GPa 

  Fractional coordinates of asymmetric unit :

--------------------------------------------------------------------------------
   No.  Atomic       x           y          z         Charge      Occupancy
        Label      (Frac)      (Frac)     (Frac)        (e)         (Frac)  
--------------------------------------------------------------------------------
      1 Sb    c    0.396797    0.396797    0.396797      0.0000    1.000000    
      2 Sb    c    0.597171    0.597171    0.597171      0.0000    1.000000    
      3 Te1   c    0.000000    0.000000    0.000000      0.0000    1.000000    
      4 Te2   c    0.784571    0.784571    0.784571      0.0000    1.000000    
      5 Te2   c    0.215429    0.215429    0.215429      0.0000    1.000000    
--------------------------------------------------------------------------------



********************************************************************************
*  Input for Configuration =  23                                               *
********************************************************************************

  Formula = Sb2Te3                                                      

  Number of irreducible atoms/shells =       5


  Total number atoms/shells =       5

  Dimensionality = 3               :  Bulk   



  Cartesian lattice vectors (Angstroms) :

       -2.504286    0.000000   10.443767
        1.252143   -2.168775   10.443767
        1.252143    2.168775   10.443767

  Cell parameters (Angstroms/Degrees):

  a =      10.7398    alpha =  23.3006
  b =      10.7398    beta  =  23.3006
  c =      10.7398    gamma =  23.3006

  Initial cell volume =         170.167643 Angs**3

  Temperature of configuration =  0.000     K 

  Pressure of configuration =         0.000 GPa 

  Fractional coordinates of asymmetric unit :

--------------------------------------------------------------------------------
   No.  Atomic       x           y          z         Charge      Occupancy
        Label      (Frac)      (Frac)     (Frac)        (e)         (Frac)  
--------------------------------------------------------------------------------
      1 Sb    c    0.396797    0.396797    0.396797      0.0000    1.000000    
      2 Sb    c    0.603203    0.603203    0.603203      0.0000    1.000000    
      3 Te1   c    0.000000    0.000000    0.000000      0.0000    1.000000    
      4 Te2   c    0.784571    0.784571    0.784571      0.0000    1.000000    
      5 Te2   c    0.215429    0.215429    0.215429      0.0000    1.000000    
--------------------------------------------------------------------------------



********************************************************************************
*  Input for Configuration =  24                                               *
********************************************************************************

  Formula = Sb2Te3                                                      

  Number of irreducible atoms/shells =       5


  Total number atoms/shells =       5

  Dimensionality = 3               :  Bulk   



  Cartesian lattice vectors (Angstroms) :

       -2.504286    0.000000   10.443767
        1.252143   -2.168775   10.443767
        1.252143    2.168775   10.443767

  Cell parameters (Angstroms/Degrees):

  a =      10.7398    alpha =  23.3006
  b =      10.7398    beta  =  23.3006
  c =      10.7398    gamma =  23.3006

  Initial cell volume =         170.167643 Angs**3

  Temperature of configuration =  0.000     K 

  Pressure of configuration =         0.000 GPa 

  Fractional coordinates of asymmetric unit :

--------------------------------------------------------------------------------
   No.  Atomic       x           y          z         Charge      Occupancy
        Label      (Frac)      (Frac)     (Frac)        (e)         (Frac)  
--------------------------------------------------------------------------------
      1 Sb    c    0.396797    0.396797    0.396797      0.0000    1.000000    
      2 Sb    c    0.609235    0.609235    0.609235      0.0000    1.000000    
      3 Te1   c    0.000000    0.000000    0.000000      0.0000    1.000000    
      4 Te2   c    0.784571    0.784571    0.784571      0.0000    1.000000    
      5 Te2   c    0.215429    0.215429    0.215429      0.0000    1.000000    
--------------------------------------------------------------------------------



********************************************************************************
*  Input for Configuration =  25                                               *
********************************************************************************

  Formula = Sb2Te3                                                      

  Number of irreducible atoms/shells =       5


  Total number atoms/shells =       5

  Dimensionality = 3               :  Bulk   



  Cartesian lattice vectors (Angstroms) :

       -2.504286    0.000000   10.443767
        1.252143   -2.168775   10.443767
        1.252143    2.168775   10.443767

  Cell parameters (Angstroms/Degrees):

  a =      10.7398    alpha =  23.3006
  b =      10.7398    beta  =  23.3006
  c =      10.7398    gamma =  23.3006

  Initial cell volume =         170.167643 Angs**3

  Temperature of configuration =  0.000     K 

  Pressure of configuration =         0.000 GPa 

  Fractional coordinates of asymmetric unit :

--------------------------------------------------------------------------------
   No.  Atomic       x           y          z         Charge      Occupancy
        Label      (Frac)      (Frac)     (Frac)        (e)         (Frac)  
--------------------------------------------------------------------------------
      1 Sb    c    0.396797    0.396797    0.396797      0.0000    1.000000    
      2 Sb    c    0.615267    0.615267    0.615267      0.0000    1.000000    
      3 Te1   c    0.000000    0.000000    0.000000      0.0000    1.000000    
      4 Te2   c    0.784571    0.784571    0.784571      0.0000    1.000000    
      5 Te2   c    0.215429    0.215429    0.215429      0.0000    1.000000    
--------------------------------------------------------------------------------



********************************************************************************
*  Input for Configuration =  26                                               *
********************************************************************************

  Formula = Sb2Te3                                                      

  Number of irreducible atoms/shells =       5


  Total number atoms/shells =       5

  Dimensionality = 3               :  Bulk   



  Cartesian lattice vectors (Angstroms) :

       -2.504286    0.000000   10.443767
        1.252143   -2.168775   10.443767
        1.252143    2.168775   10.443767

  Cell parameters (Angstroms/Degrees):

  a =      10.7398    alpha =  23.3006
  b =      10.7398    beta  =  23.3006
  c =      10.7398    gamma =  23.3006

  Initial cell volume =         170.167643 Angs**3

  Temperature of configuration =  0.000     K 

  Pressure of configuration =         0.000 GPa 

  Fractional coordinates of asymmetric unit :

--------------------------------------------------------------------------------
   No.  Atomic       x           y          z         Charge      Occupancy
        Label      (Frac)      (Frac)     (Frac)        (e)         (Frac)  
--------------------------------------------------------------------------------
      1 Sb    c    0.396797    0.396797    0.396797      0.0000    1.000000    
      2 Sb    c    0.621300    0.621300    0.621300      0.0000    1.000000    
      3 Te1   c    0.000000    0.000000    0.000000      0.0000    1.000000    
      4 Te2   c    0.784571    0.784571    0.784571      0.0000    1.000000    
      5 Te2   c    0.215429    0.215429    0.215429      0.0000    1.000000    
--------------------------------------------------------------------------------



********************************************************************************
*  Input for Configuration =  27                                               *
********************************************************************************

  Formula = Sb2Te3                                                      

  Number of irreducible atoms/shells =       5


  Total number atoms/shells =       5

  Dimensionality = 3               :  Bulk   



  Cartesian lattice vectors (Angstroms) :

       -2.504286    0.000000   10.443767
        1.252143   -2.168775   10.443767
        1.252143    2.168775   10.443767

  Cell parameters (Angstroms/Degrees):

  a =      10.7398    alpha =  23.3006
  b =      10.7398    beta  =  23.3006
  c =      10.7398    gamma =  23.3006

  Initial cell volume =         170.167643 Angs**3

  Temperature of configuration =  0.000     K 

  Pressure of configuration =         0.000 GPa 

  Fractional coordinates of asymmetric unit :

--------------------------------------------------------------------------------
   No.  Atomic       x           y          z         Charge      Occupancy
        Label      (Frac)      (Frac)     (Frac)        (e)         (Frac)  
--------------------------------------------------------------------------------
      1 Sb    c    0.396797    0.396797    0.396797      0.0000    1.000000    
      2 Sb    c    0.627332    0.627332    0.627332      0.0000    1.000000    
      3 Te1   c    0.000000    0.000000    0.000000      0.0000    1.000000    
      4 Te2   c    0.784571    0.784571    0.784571      0.0000    1.000000    
      5 Te2   c    0.215429    0.215429    0.215429      0.0000    1.000000    
--------------------------------------------------------------------------------



********************************************************************************
*  Input for Configuration =  28                                               *
********************************************************************************

  Formula = Sb2Te3                                                      

  Number of irreducible atoms/shells =       5


  Total number atoms/shells =       5

  Dimensionality = 3               :  Bulk   



  Cartesian lattice vectors (Angstroms) :

       -2.504286    0.000000   10.443767
        1.252143   -2.168775   10.443767
        1.252143    2.168775   10.443767

  Cell parameters (Angstroms/Degrees):

  a =      10.7398    alpha =  23.3006
  b =      10.7398    beta  =  23.3006
  c =      10.7398    gamma =  23.3006

  Initial cell volume =         170.167643 Angs**3

  Temperature of configuration =  0.000     K 

  Pressure of configuration =         0.000 GPa 

  Fractional coordinates of asymmetric unit :

--------------------------------------------------------------------------------
   No.  Atomic       x           y          z         Charge      Occupancy
        Label      (Frac)      (Frac)     (Frac)        (e)         (Frac)  
--------------------------------------------------------------------------------
      1 Sb    c    0.396797    0.396797    0.396797      0.0000    1.000000    
      2 Sb    c    0.633364    0.633364    0.633364      0.0000    1.000000    
      3 Te1   c    0.000000    0.000000    0.000000      0.0000    1.000000    
      4 Te2   c    0.784571    0.784571    0.784571      0.0000    1.000000    
      5 Te2   c    0.215429    0.215429    0.215429      0.0000    1.000000    
--------------------------------------------------------------------------------



********************************************************************************
*  Input for Configuration =  29                                               *
********************************************************************************

  Formula = Sb2Te3                                                      

  Number of irreducible atoms/shells =       5


  Total number atoms/shells =       5

  Dimensionality = 3               :  Bulk   



  Cartesian lattice vectors (Angstroms) :

       -2.504286    0.000000   10.443767
        1.252143   -2.168775   10.443767
        1.252143    2.168775   10.443767

  Cell parameters (Angstroms/Degrees):

  a =      10.7398    alpha =  23.3006
  b =      10.7398    beta  =  23.3006
  c =      10.7398    gamma =  23.3006

  Initial cell volume =         170.167643 Angs**3

  Temperature of configuration =  0.000     K 

  Pressure of configuration =         0.000 GPa 

  Fractional coordinates of asymmetric unit :

--------------------------------------------------------------------------------
   No.  Atomic       x           y          z         Charge      Occupancy
        Label      (Frac)      (Frac)     (Frac)        (e)         (Frac)  
--------------------------------------------------------------------------------
      1 Sb    c    0.396797    0.396797    0.396797      0.0000    1.000000    
      2 Sb    c    0.639396    0.639396    0.639396      0.0000    1.000000    
      3 Te1   c    0.000000    0.000000    0.000000      0.0000    1.000000    
      4 Te2   c    0.784571    0.784571    0.784571      0.0000    1.000000    
      5 Te2   c    0.215429    0.215429    0.215429      0.0000    1.000000    
--------------------------------------------------------------------------------



********************************************************************************
*  Input for Configuration =  30                                               *
********************************************************************************

  Formula = Sb2Te3                                                      

  Number of irreducible atoms/shells =       5


  Total number atoms/shells =       5

  Dimensionality = 3               :  Bulk   



  Cartesian lattice vectors (Angstroms) :

       -2.504286    0.000000   10.443767
        1.252143   -2.168775   10.443767
        1.252143    2.168775   10.443767

  Cell parameters (Angstroms/Degrees):

  a =      10.7398    alpha =  23.3006
  b =      10.7398    beta  =  23.3006
  c =      10.7398    gamma =  23.3006

  Initial cell volume =         170.167643 Angs**3

  Temperature of configuration =  0.000     K 

  Pressure of configuration =         0.000 GPa 

  Fractional coordinates of asymmetric unit :

--------------------------------------------------------------------------------
   No.  Atomic       x           y          z         Charge      Occupancy
        Label      (Frac)      (Frac)     (Frac)        (e)         (Frac)  
--------------------------------------------------------------------------------
      1 Sb    c    0.396797    0.396797    0.396797      0.0000    1.000000    
      2 Sb    c    0.645428    0.645428    0.645428      0.0000    1.000000    
      3 Te1   c    0.000000    0.000000    0.000000      0.0000    1.000000    
      4 Te2   c    0.784571    0.784571    0.784571      0.0000    1.000000    
      5 Te2   c    0.215429    0.215429    0.215429      0.0000    1.000000    
--------------------------------------------------------------------------------



********************************************************************************
*  Input for Configuration =  31                                               *
********************************************************************************

  Formula = Sb2Te3                                                      

  Number of irreducible atoms/shells =       5


  Total number atoms/shells =       5

  Dimensionality = 3               :  Bulk   



  Cartesian lattice vectors (Angstroms) :

       -2.504286    0.000000   10.443767
        1.252143   -2.168775   10.443767
        1.252143    2.168775   10.443767

  Cell parameters (Angstroms/Degrees):

  a =      10.7398    alpha =  23.3006
  b =      10.7398    beta  =  23.3006
  c =      10.7398    gamma =  23.3006

  Initial cell volume =         170.167643 Angs**3

  Temperature of configuration =  0.000     K 

  Pressure of configuration =         0.000 GPa 

  Fractional coordinates of asymmetric unit :

--------------------------------------------------------------------------------
   No.  Atomic       x           y          z         Charge      Occupancy
        Label      (Frac)      (Frac)     (Frac)        (e)         (Frac)  
--------------------------------------------------------------------------------
      1 Sb    c    0.396797    0.396797    0.396797      0.0000    1.000000    
      2 Sb    c    0.603203    0.603203    0.603203      0.0000    1.000000    
      3 Te1   c    0.930000    0.930000    0.930000      0.0000    1.000000    
      4 Te2   c    0.784571    0.784571    0.784571      0.0000    1.000000    
      5 Te2   c    0.215429    0.215429    0.215429      0.0000    1.000000    
--------------------------------------------------------------------------------



********************************************************************************
*  Input for Configuration =  32                                               *
********************************************************************************

  Formula = Sb2Te3                                                      

  Number of irreducible atoms/shells =       5


  Total number atoms/shells =       5

  Dimensionality = 3               :  Bulk   



  Cartesian lattice vectors (Angstroms) :

       -2.504286    0.000000   10.443767
        1.252143   -2.168775   10.443767
        1.252143    2.168775   10.443767

  Cell parameters (Angstroms/Degrees):

  a =      10.7398    alpha =  23.3006
  b =      10.7398    beta  =  23.3006
  c =      10.7398    gamma =  23.3006

  Initial cell volume =         170.167643 Angs**3

  Temperature of configuration =  0.000     K 

  Pressure of configuration =         0.000 GPa 

  Fractional coordinates of asymmetric unit :

--------------------------------------------------------------------------------
   No.  Atomic       x           y          z         Charge      Occupancy
        Label      (Frac)      (Frac)     (Frac)        (e)         (Frac)  
--------------------------------------------------------------------------------
      1 Sb    c    0.396797    0.396797    0.396797      0.0000    1.000000    
      2 Sb    c    0.603203    0.603203    0.603203      0.0000    1.000000    
      3 Te1   c    0.940000    0.940000    0.940000      0.0000    1.000000    
      4 Te2   c    0.784571    0.784571    0.784571      0.0000    1.000000    
      5 Te2   c    0.215429    0.215429    0.215429      0.0000    1.000000    
--------------------------------------------------------------------------------



********************************************************************************
*  Input for Configuration =  33                                               *
********************************************************************************

  Formula = Sb2Te3                                                      

  Number of irreducible atoms/shells =       5


  Total number atoms/shells =       5

  Dimensionality = 3               :  Bulk   



  Cartesian lattice vectors (Angstroms) :

       -2.504286    0.000000   10.443767
        1.252143   -2.168775   10.443767
        1.252143    2.168775   10.443767

  Cell parameters (Angstroms/Degrees):

  a =      10.7398    alpha =  23.3006
  b =      10.7398    beta  =  23.3006
  c =      10.7398    gamma =  23.3006

  Initial cell volume =         170.167643 Angs**3

  Temperature of configuration =  0.000     K 

  Pressure of configuration =         0.000 GPa 

  Fractional coordinates of asymmetric unit :

--------------------------------------------------------------------------------
   No.  Atomic       x           y          z         Charge      Occupancy
        Label      (Frac)      (Frac)     (Frac)        (e)         (Frac)  
--------------------------------------------------------------------------------
      1 Sb    c    0.396797    0.396797    0.396797      0.0000    1.000000    
      2 Sb    c    0.603203    0.603203    0.603203      0.0000    1.000000    
      3 Te1   c    0.950000    0.950000    0.950000      0.0000    1.000000    
      4 Te2   c    0.784571    0.784571    0.784571      0.0000    1.000000    
      5 Te2   c    0.215429    0.215429    0.215429      0.0000    1.000000    
--------------------------------------------------------------------------------



********************************************************************************
*  Input for Configuration =  34                                               *
********************************************************************************

  Formula = Sb2Te3                                                      

  Number of irreducible atoms/shells =       5


  Total number atoms/shells =       5

  Dimensionality = 3               :  Bulk   



  Cartesian lattice vectors (Angstroms) :

       -2.504286    0.000000   10.443767
        1.252143   -2.168775   10.443767
        1.252143    2.168775   10.443767

  Cell parameters (Angstroms/Degrees):

  a =      10.7398    alpha =  23.3006
  b =      10.7398    beta  =  23.3006
  c =      10.7398    gamma =  23.3006

  Initial cell volume =         170.167643 Angs**3

  Temperature of configuration =  0.000     K 

  Pressure of configuration =         0.000 GPa 

  Fractional coordinates of asymmetric unit :

--------------------------------------------------------------------------------
   No.  Atomic       x           y          z         Charge      Occupancy
        Label      (Frac)      (Frac)     (Frac)        (e)         (Frac)  
--------------------------------------------------------------------------------
      1 Sb    c    0.396797    0.396797    0.396797      0.0000    1.000000    
      2 Sb    c    0.603203    0.603203    0.603203      0.0000    1.000000    
      3 Te1   c    0.960000    0.960000    0.960000      0.0000    1.000000    
      4 Te2   c    0.784571    0.784571    0.784571      0.0000    1.000000    
      5 Te2   c    0.215429    0.215429    0.215429      0.0000    1.000000    
--------------------------------------------------------------------------------



********************************************************************************
*  Input for Configuration =  35                                               *
********************************************************************************

  Formula = Sb2Te3                                                      

  Number of irreducible atoms/shells =       5


  Total number atoms/shells =       5

  Dimensionality = 3               :  Bulk   



  Cartesian lattice vectors (Angstroms) :

       -2.504286    0.000000   10.443767
        1.252143   -2.168775   10.443767
        1.252143    2.168775   10.443767

  Cell parameters (Angstroms/Degrees):

  a =      10.7398    alpha =  23.3006
  b =      10.7398    beta  =  23.3006
  c =      10.7398    gamma =  23.3006

  Initial cell volume =         170.167643 Angs**3

  Temperature of configuration =  0.000     K 

  Pressure of configuration =         0.000 GPa 

  Fractional coordinates of asymmetric unit :

--------------------------------------------------------------------------------
   No.  Atomic       x           y          z         Charge      Occupancy
        Label      (Frac)      (Frac)     (Frac)        (e)         (Frac)  
--------------------------------------------------------------------------------
      1 Sb    c    0.396797    0.396797    0.396797      0.0000    1.000000    
      2 Sb    c    0.603203    0.603203    0.603203      0.0000    1.000000    
      3 Te1   c    0.970000    0.970000    0.970000      0.0000    1.000000    
      4 Te2   c    0.784571    0.784571    0.784571      0.0000    1.000000    
      5 Te2   c    0.215429    0.215429    0.215429      0.0000    1.000000    
--------------------------------------------------------------------------------



********************************************************************************
*  Input for Configuration =  36                                               *
********************************************************************************

  Formula = Sb2Te3                                                      

  Number of irreducible atoms/shells =       5


  Total number atoms/shells =       5

  Dimensionality = 3               :  Bulk   



  Cartesian lattice vectors (Angstroms) :

       -2.504286    0.000000   10.443767
        1.252143   -2.168775   10.443767
        1.252143    2.168775   10.443767

  Cell parameters (Angstroms/Degrees):

  a =      10.7398    alpha =  23.3006
  b =      10.7398    beta  =  23.3006
  c =      10.7398    gamma =  23.3006

  Initial cell volume =         170.167643 Angs**3

  Temperature of configuration =  0.000     K 

  Pressure of configuration =         0.000 GPa 

  Fractional coordinates of asymmetric unit :

--------------------------------------------------------------------------------
   No.  Atomic       x           y          z         Charge      Occupancy
        Label      (Frac)      (Frac)     (Frac)        (e)         (Frac)  
--------------------------------------------------------------------------------
      1 Sb    c    0.396797    0.396797    0.396797      0.0000    1.000000    
      2 Sb    c    0.603203    0.603203    0.603203      0.0000    1.000000    
      3 Te1   c    0.980000    0.980000    0.980000      0.0000    1.000000    
      4 Te2   c    0.784571    0.784571    0.784571      0.0000    1.000000    
      5 Te2   c    0.215429    0.215429    0.215429      0.0000    1.000000    
--------------------------------------------------------------------------------



********************************************************************************
*  Input for Configuration =  37                                               *
********************************************************************************

  Formula = Sb2Te3                                                      

  Number of irreducible atoms/shells =       5


  Total number atoms/shells =       5

  Dimensionality = 3               :  Bulk   



  Cartesian lattice vectors (Angstroms) :

       -2.504286    0.000000   10.443767
        1.252143   -2.168775   10.443767
        1.252143    2.168775   10.443767

  Cell parameters (Angstroms/Degrees):

  a =      10.7398    alpha =  23.3006
  b =      10.7398    beta  =  23.3006
  c =      10.7398    gamma =  23.3006

  Initial cell volume =         170.167643 Angs**3

  Temperature of configuration =  0.000     K 

  Pressure of configuration =         0.000 GPa 

  Fractional coordinates of asymmetric unit :

--------------------------------------------------------------------------------
   No.  Atomic       x           y          z         Charge      Occupancy
        Label      (Frac)      (Frac)     (Frac)        (e)         (Frac)  
--------------------------------------------------------------------------------
      1 Sb    c    0.396797    0.396797    0.396797      0.0000    1.000000    
      2 Sb    c    0.603203    0.603203    0.603203      0.0000    1.000000    
      3 Te1   c    0.990000    0.990000    0.990000      0.0000    1.000000    
      4 Te2   c    0.784571    0.784571    0.784571      0.0000    1.000000    
      5 Te2   c    0.215429    0.215429    0.215429      0.0000    1.000000    
--------------------------------------------------------------------------------



********************************************************************************
*  Input for Configuration =  38                                               *
********************************************************************************

  Formula = Sb2Te3                                                      

  Number of irreducible atoms/shells =       5


  Total number atoms/shells =       5

  Dimensionality = 3               :  Bulk   



  Cartesian lattice vectors (Angstroms) :

       -2.504286    0.000000   10.443767
        1.252143   -2.168775   10.443767
        1.252143    2.168775   10.443767

  Cell parameters (Angstroms/Degrees):

  a =      10.7398    alpha =  23.3006
  b =      10.7398    beta  =  23.3006
  c =      10.7398    gamma =  23.3006

  Initial cell volume =         170.167643 Angs**3

  Temperature of configuration =  0.000     K 

  Pressure of configuration =         0.000 GPa 

  Fractional coordinates of asymmetric unit :

--------------------------------------------------------------------------------
   No.  Atomic       x           y          z         Charge      Occupancy
        Label      (Frac)      (Frac)     (Frac)        (e)         (Frac)  
--------------------------------------------------------------------------------
      1 Sb    c    0.396797    0.396797    0.396797      0.0000    1.000000    
      2 Sb    c    0.603203    0.603203    0.603203      0.0000    1.000000    
      3 Te1   c    0.000000    0.000000    0.000000      0.0000    1.000000    
      4 Te2   c    0.784571    0.784571    0.784571      0.0000    1.000000    
      5 Te2   c    0.215429    0.215429    0.215429      0.0000    1.000000    
--------------------------------------------------------------------------------



********************************************************************************
*  Input for Configuration =  39                                               *
********************************************************************************

  Formula = Sb2Te3                                                      

  Number of irreducible atoms/shells =       5


  Total number atoms/shells =       5

  Dimensionality = 3               :  Bulk   



  Cartesian lattice vectors (Angstroms) :

       -2.504286    0.000000   10.443767
        1.252143   -2.168775   10.443767
        1.252143    2.168775   10.443767

  Cell parameters (Angstroms/Degrees):

  a =      10.7398    alpha =  23.3006
  b =      10.7398    beta  =  23.3006
  c =      10.7398    gamma =  23.3006

  Initial cell volume =         170.167643 Angs**3

  Temperature of configuration =  0.000     K 

  Pressure of configuration =         0.000 GPa 

  Fractional coordinates of asymmetric unit :

--------------------------------------------------------------------------------
   No.  Atomic       x           y          z         Charge      Occupancy
        Label      (Frac)      (Frac)     (Frac)        (e)         (Frac)  
--------------------------------------------------------------------------------
      1 Sb    c    0.396797    0.396797    0.396797      0.0000    1.000000    
      2 Sb    c    0.603203    0.603203    0.603203      0.0000    1.000000    
      3 Te1   c    0.010000    0.010000    0.010000      0.0000    1.000000    
      4 Te2   c    0.784571    0.784571    0.784571      0.0000    1.000000    
      5 Te2   c    0.215429    0.215429    0.215429      0.0000    1.000000    
--------------------------------------------------------------------------------



********************************************************************************
*  Input for Configuration =  40                                               *
********************************************************************************

  Formula = Sb2Te3                                                      

  Number of irreducible atoms/shells =       5


  Total number atoms/shells =       5

  Dimensionality = 3               :  Bulk   



  Cartesian lattice vectors (Angstroms) :

       -2.504286    0.000000   10.443767
        1.252143   -2.168775   10.443767
        1.252143    2.168775   10.443767

  Cell parameters (Angstroms/Degrees):

  a =      10.7398    alpha =  23.3006
  b =      10.7398    beta  =  23.3006
  c =      10.7398    gamma =  23.3006

  Initial cell volume =         170.167643 Angs**3

  Temperature of configuration =  0.000     K 

  Pressure of configuration =         0.000 GPa 

  Fractional coordinates of asymmetric unit :

--------------------------------------------------------------------------------
   No.  Atomic       x           y          z         Charge      Occupancy
        Label      (Frac)      (Frac)     (Frac)        (e)         (Frac)  
--------------------------------------------------------------------------------
      1 Sb    c    0.396797    0.396797    0.396797      0.0000    1.000000    
      2 Sb    c    0.603203    0.603203    0.603203      0.0000    1.000000    
      3 Te1   c    0.020000    0.020000    0.020000      0.0000    1.000000    
      4 Te2   c    0.784571    0.784571    0.784571      0.0000    1.000000    
      5 Te2   c    0.215429    0.215429    0.215429      0.0000    1.000000    
--------------------------------------------------------------------------------



********************************************************************************
*  Input for Configuration =  41                                               *
********************************************************************************

  Formula = Sb2Te3                                                      

  Number of irreducible atoms/shells =       5


  Total number atoms/shells =       5

  Dimensionality = 3               :  Bulk   



  Cartesian lattice vectors (Angstroms) :

       -2.504286    0.000000   10.443767
        1.252143   -2.168775   10.443767
        1.252143    2.168775   10.443767

  Cell parameters (Angstroms/Degrees):

  a =      10.7398    alpha =  23.3006
  b =      10.7398    beta  =  23.3006
  c =      10.7398    gamma =  23.3006

  Initial cell volume =         170.167643 Angs**3

  Temperature of configuration =  0.000     K 

  Pressure of configuration =         0.000 GPa 

  Fractional coordinates of asymmetric unit :

--------------------------------------------------------------------------------
   No.  Atomic       x           y          z         Charge      Occupancy
        Label      (Frac)      (Frac)     (Frac)        (e)         (Frac)  
--------------------------------------------------------------------------------
      1 Sb    c    0.396797    0.396797    0.396797      0.0000    1.000000    
      2 Sb    c    0.603203    0.603203    0.603203      0.0000    1.000000    
      3 Te1   c    0.030000    0.030000    0.030000      0.0000    1.000000    
      4 Te2   c    0.784571    0.784571    0.784571      0.0000    1.000000    
      5 Te2   c    0.215429    0.215429    0.215429      0.0000    1.000000    
--------------------------------------------------------------------------------



********************************************************************************
*  Input for Configuration =  42                                               *
********************************************************************************

  Formula = Sb2Te3                                                      

  Number of irreducible atoms/shells =       5


  Total number atoms/shells =       5

  Dimensionality = 3               :  Bulk   



  Cartesian lattice vectors (Angstroms) :

       -2.504286    0.000000   10.443767
        1.252143   -2.168775   10.443767
        1.252143    2.168775   10.443767

  Cell parameters (Angstroms/Degrees):

  a =      10.7398    alpha =  23.3006
  b =      10.7398    beta  =  23.3006
  c =      10.7398    gamma =  23.3006

  Initial cell volume =         170.167643 Angs**3

  Temperature of configuration =  0.000     K 

  Pressure of configuration =         0.000 GPa 

  Fractional coordinates of asymmetric unit :

--------------------------------------------------------------------------------
   No.  Atomic       x           y          z         Charge      Occupancy
        Label      (Frac)      (Frac)     (Frac)        (e)         (Frac)  
--------------------------------------------------------------------------------
      1 Sb    c    0.396797    0.396797    0.396797      0.0000    1.000000    
      2 Sb    c    0.603203    0.603203    0.603203      0.0000    1.000000    
      3 Te1   c    0.040000    0.040000    0.040000      0.0000    1.000000    
      4 Te2   c    0.784571    0.784571    0.784571      0.0000    1.000000    
      5 Te2   c    0.215429    0.215429    0.215429      0.0000    1.000000    
--------------------------------------------------------------------------------



********************************************************************************
*  Input for Configuration =  43                                               *
********************************************************************************

  Formula = Sb2Te3                                                      

  Number of irreducible atoms/shells =       5


  Total number atoms/shells =       5

  Dimensionality = 3               :  Bulk   



  Cartesian lattice vectors (Angstroms) :

       -2.504286    0.000000   10.443767
        1.252143   -2.168775   10.443767
        1.252143    2.168775   10.443767

  Cell parameters (Angstroms/Degrees):

  a =      10.7398    alpha =  23.3006
  b =      10.7398    beta  =  23.3006
  c =      10.7398    gamma =  23.3006

  Initial cell volume =         170.167643 Angs**3

  Temperature of configuration =  0.000     K 

  Pressure of configuration =         0.000 GPa 

  Fractional coordinates of asymmetric unit :

--------------------------------------------------------------------------------
   No.  Atomic       x           y          z         Charge      Occupancy
        Label      (Frac)      (Frac)     (Frac)        (e)         (Frac)  
--------------------------------------------------------------------------------
      1 Sb    c    0.396797    0.396797    0.396797      0.0000    1.000000    
      2 Sb    c    0.603203    0.603203    0.603203      0.0000    1.000000    
      3 Te1   c    0.050000    0.050000    0.050000      0.0000    1.000000    
      4 Te2   c    0.784571    0.784571    0.784571      0.0000    1.000000    
      5 Te2   c    0.215429    0.215429    0.215429      0.0000    1.000000    
--------------------------------------------------------------------------------



********************************************************************************
*  Input for Configuration =  44                                               *
********************************************************************************

  Formula = Sb2Te3                                                      

  Number of irreducible atoms/shells =       5


  Total number atoms/shells =       5

  Dimensionality = 3               :  Bulk   



  Cartesian lattice vectors (Angstroms) :

       -2.504286    0.000000   10.443767
        1.252143   -2.168775   10.443767
        1.252143    2.168775   10.443767

  Cell parameters (Angstroms/Degrees):

  a =      10.7398    alpha =  23.3006
  b =      10.7398    beta  =  23.3006
  c =      10.7398    gamma =  23.3006

  Initial cell volume =         170.167643 Angs**3

  Temperature of configuration =  0.000     K 

  Pressure of configuration =         0.000 GPa 

  Fractional coordinates of asymmetric unit :

--------------------------------------------------------------------------------
   No.  Atomic       x           y          z         Charge      Occupancy
        Label      (Frac)      (Frac)     (Frac)        (e)         (Frac)  
--------------------------------------------------------------------------------
      1 Sb    c    0.396797    0.396797    0.396797      0.0000    1.000000    
      2 Sb    c    0.603203    0.603203    0.603203      0.0000    1.000000    
      3 Te1   c    0.060000    0.060000    0.060000      0.0000    1.000000    
      4 Te2   c    0.784571    0.784571    0.784571      0.0000    1.000000    
      5 Te2   c    0.215429    0.215429    0.215429      0.0000    1.000000    
--------------------------------------------------------------------------------



********************************************************************************
*  Input for Configuration =  45                                               *
********************************************************************************

  Formula = Sb2Te3                                                      

  Number of irreducible atoms/shells =       5


  Total number atoms/shells =       5

  Dimensionality = 3               :  Bulk   



  Cartesian lattice vectors (Angstroms) :

       -2.504286    0.000000   10.443767
        1.252143   -2.168775   10.443767
        1.252143    2.168775   10.443767

[...]
        Label       (Frac)      (Frac)     (Frac)       (Angs) 
--------------------------------------------------------------------------------
     1  Sb    c     0.396797    0.396797    0.396797    0.000000
     2  Sb    c     0.601965    0.601965    0.601965    0.000000
     3  Te1   c     0.999381    0.999381    0.999381    0.000000
     4  Te2   c     0.783153    0.783153    0.783153    0.000000
     5  Te2   c     0.215609    0.215609    0.215609    0.000000
--------------------------------------------------------------------------------

  Final Cartesian lattice vectors (Angstroms) :

       10.550232   -0.057183   -0.033951
        9.667204    4.225616   -0.033951
        9.667204    1.993185    3.726151


  Final cell parameters and derivatives :

--------------------------------------------------------------------------------
       a           10.550441 Angstrom     dE/de1(xx)    -0.000019 eV/strain
       b           10.550441 Angstrom     dE/de2(yy)    -0.000025 eV/strain
       c           10.550441 Angstrom     dE/de3(zz)    -0.000025 eV/strain
       alpha       23.920965 Degrees      dE/de4(yz)     0.000000 eV/strain
       beta        23.920965 Degrees      dE/de5(xz)     0.000001 eV/strain
       gamma       23.920965 Degrees      dE/de6(xy)     0.000001 eV/strain
--------------------------------------------------------------------------------

  Primitive cell volume =           169.641613 Angs**3

  Density of cell =      6.130643 g/cm**3

  Non-primitive cell volume =           169.641613 Angs**3


  Final internal derivatives :

--------------------------------------------------------------------------------
   No.  Atomic          x             y             z           Radius
        Label          (eV)          (eV)          (eV)        (eV/Angs)
--------------------------------------------------------------------------------
      1 Sb    c       0.000000      0.000000      0.000000      0.000000
      2 Sb    c       0.000018      0.000018      0.000018      0.000000
      3 Te1   c      -0.000000     -0.000000     -0.000000      0.000000
      4 Te2   c       0.000058      0.000058      0.000058      0.000000
      5 Te2   c      -0.000058     -0.000058     -0.000058      0.000000
--------------------------------------------------------------------------------
  Maximum abs         0.000058      0.000058      0.000058      0.000000
--------------------------------------------------------------------------------



  Elastic Constant Matrix: (Units=GPa)

-------------------------------------------------------------------------------
  Indices      1         2         3         4         5         6    
-------------------------------------------------------------------------------
       1     25.9352   14.7212   17.6081   -2.6471   -1.8253   -3.0744
       2     14.7212   56.6703   23.6453    3.1790    4.4055   -3.5439
       3     17.6081   23.6453   54.8405   -1.5013   -7.2814   -1.3000
       4     -2.6471    3.1790   -1.5013   19.0705   -0.7348    4.7411
       5     -1.8253    4.4055   -7.2814   -0.7348   15.6582   -2.5779
       6     -3.0744   -3.5439   -1.3000    4.7411   -2.5779   12.8468
-------------------------------------------------------------------------------


  Elastic Compliance Matrix: (Units=1/GPa)

-------------------------------------------------------------------------------
  Indices      1         2         3         4         5         6    
-------------------------------------------------------------------------------
       1    0.054064 -0.009061 -0.012482  0.006274  0.004624  0.007788
       2   -0.009061  0.025896 -0.010054 -0.007934 -0.012675  0.004343
       3   -0.012482 -0.010054  0.028578  0.003017  0.014632 -0.001046
       4    0.006274 -0.007934  0.003017  0.060470  0.003586 -0.021979
       5    0.004624 -0.012675  0.014632  0.003586  0.077122  0.013243
       6    0.007788  0.004343 -0.001046 -0.021979  0.013243  0.091565
-------------------------------------------------------------------------------

 Mechanical properties :

-------------------------------------------------------------------------------
  Convention :                    Reuss         Voigt         Hill
-------------------------------------------------------------------------------
  Bulk  Modulus (GPa)     =      22.05269      27.71059      24.88164
  Shear Modulus (GPa)     =      12.01918      14.94653      13.48285
-------------------------------------------------------------------------------
  Velocity S-wave (km/s)  =       4.42776       4.93761       4.68962
  Velocity P-wave (km/s)  =       7.88108       8.81515       8.36117
-------------------------------------------------------------------------------
  Compressibility (1/GPa) =    0.04534594
-------------------------------------------------------------------------------
  Stress axis :                     x             y             z
-------------------------------------------------------------------------------
  Youngs Moduli (GPa)     =      18.49666      38.61552      34.99243
-------------------------------------------------------------------------------
  Poissons Ratio (x)      =                     0.34988       0.43677
  Poissons Ratio (y)      =       0.16759                     0.35180
  Poissons Ratio (z)      =       0.23087       0.38822
-------------------------------------------------------------------------------


  Piezoelectric Strain Matrix: (Units=C/m**2)

-------------------------------------------------------------------------------
  Indices      1         2         3         4         5         6    
-------------------------------------------------------------------------------
       x    -0.00000  -0.00000  -0.00000  -0.00000  -0.00000  -0.00000
       y    -0.00000  -0.00000  -0.00000  -0.00000  -0.00000  -0.00000
       z    -0.00000  -0.00000  -0.00000  -0.00000  -0.00000  -0.00000
-------------------------------------------------------------------------------


  Piezoelectric Stress Matrix: (Units=10**-11 C/N)

-------------------------------------------------------------------------------
  Indices      1         2         3         4         5         6    
-------------------------------------------------------------------------------
       x     0.00000   0.00000   0.00000   0.00000   0.00000   0.00000
       y     0.00000   0.00000   0.00000   0.00000   0.00000   0.00000
       z     0.00000   0.00000   0.00000   0.00000   0.00000   0.00000
-------------------------------------------------------------------------------


  Static dielectric constant tensor : 

-------------------------------------------------------------------------------
              x         y         z
-------------------------------------------------------------------------------
       x     1.00000   0.00000   0.00000
       y     0.00000   1.00000   0.00000
       z     0.00000   0.00000   1.00000
--------------------------------------------------------------------------------

  Static refractive indices : 

-------------------------------------------------------------------------------
    1 =    1.00000      2 =    1.00000      3 =    1.00000
-------------------------------------------------------------------------------


  Time to end of optimisation =    1586.7952 seconds


********************************************************************************
*  Output for configuration 219                                                *
********************************************************************************


  Components of energy : 

--------------------------------------------------------------------------------
  Interatomic potentials     =         -10.70477284 eV
  Monopole - monopole (real) =           0.00000000 eV
  Monopole - monopole (recip)=           0.00000000 eV
  Monopole - monopole (total)=           0.00000000 eV
  Energy shift               =         -14.62736047 eV
--------------------------------------------------------------------------------
  Total lattice energy       =         -25.33213330 eV
--------------------------------------------------------------------------------
  Total lattice energy       =           -2444.1636 kJ/(mole unit cells)
--------------------------------------------------------------------------------


  Number of variables =     48

  Maximum number of calculations  =          1000
  Maximum Hessian update interval =            10
  Maximum step size               =   1.000000000
  Maximum parameter tolerance     =   0.000010000
  Maximum function  tolerance     =   0.000010000
  Maximum gradient  tolerance     =   0.001000000
  Maximum gradient  component     =   0.010000000

  Symmetry not applied to optimisation

  Cell parameters to be optimised using strains

  Newton-Raphson optimiser to be used

  BFGS hessian update to be used

  Dumpfile to be written after every cycle

  Start of bulk optimisation :

  Cycle:      0 Energy:       -25.332133  Gnorm:      0.052277  CPU: 1586.847
  ** Hessian calculated **
  Cycle:      1 Energy:       -25.355881  Gnorm:      0.003956  CPU: 1586.863
  Cycle:      2 Energy:       -25.355909  Gnorm:      0.000405  CPU: 1586.919


  **** Optimisation achieved ****


  Final energy =     -25.35590898 eV
  Final Gnorm  =       0.00000597

  Components of energy : 

--------------------------------------------------------------------------------
  Interatomic potentials     =         -10.72854852 eV
  Monopole - monopole (real) =           0.00000000 eV
  Monopole - monopole (recip)=           0.00000000 eV
  Monopole - monopole (total)=           0.00000000 eV
  Energy shift               =         -14.62736047 eV
--------------------------------------------------------------------------------
  Total lattice energy       =         -25.35590898 eV
--------------------------------------------------------------------------------
  Total lattice energy       =           -2446.4576 kJ/(mole unit cells)
--------------------------------------------------------------------------------

  Final fractional coordinates of atoms :

--------------------------------------------------------------------------------
   No.  Atomic        x           y          z          Radius
        Label       (Frac)      (Frac)     (Frac)       (Angs) 
--------------------------------------------------------------------------------
     1  Sb    c     0.666667    0.333333    0.063305    0.000000
     2  Sb    c     0.666667    0.333333    0.268474    0.000000
     3  Sb    c     1.000000    0.000000    0.396639    0.000000
     4  Sb    c     0.000000    1.000000    0.601807    0.000000
     5  Sb    c     0.333333    0.666667    0.729972    0.000000
     6  Sb    c     0.333333    0.666667    0.935141    0.000000
     7  Te1   c     0.000000    1.000000    0.999223    0.000000
     8  Te2   c     0.333333    0.666667    0.116328    0.000000
     9  Te2   c     0.000000    1.000000    0.215451    0.000000
    10  Te1   c     0.333333    0.666667    0.332556    0.000000
    11  Te2   c     0.666667    0.333333    0.449661    0.000000
    12  Te2   c     0.333333    0.666667    0.548785    0.000000
    13  Te1   c     0.666667    0.333333    0.665890    0.000000
    14  Te2   c     0.000000    1.000000    0.782995    0.000000
    15  Te2   c     0.666667    0.333333    0.882118    0.000000
--------------------------------------------------------------------------------

  Final Cartesian lattice vectors (Angstroms) :

        4.372885    0.000000    0.000000
       -2.186442    3.787029   -0.000000
        0.000000   -0.000000   30.731755


  Final cell parameters and derivatives :

--------------------------------------------------------------------------------
       a            4.372885 Angstrom     dE/de1(xx)     0.000003 eV/strain
       b            4.372885 Angstrom     dE/de2(yy)     0.000003 eV/strain
       c           30.731755 Angstrom     dE/de3(zz)     0.000009 eV/strain
       alpha       90.000000 Degrees      dE/de4(yz)    -0.000000 eV/strain
       beta        90.000000 Degrees      dE/de5(xz)     0.000000 eV/strain
       gamma      120.000000 Degrees      dE/de6(xy)     0.000000 eV/strain
--------------------------------------------------------------------------------

  Primitive cell volume =           508.925270 Angs**3

  Density of cell =      6.130638 g/cm**3

  Non-primitive cell volume =           508.925270 Angs**3


  Final internal derivatives :

--------------------------------------------------------------------------------
   No.  Atomic          x             y             z           Radius
        Label          (eV)          (eV)          (eV)        (eV/Angs)
--------------------------------------------------------------------------------
      1 Sb    c       0.000000      0.000000      0.000000      0.000000
      2 Sb    c       0.000000     -0.000000      0.000049      0.000000
      3 Sb    c      -0.000000      0.000000     -0.000049      0.000000
      4 Sb    c       0.000000     -0.000000      0.000049      0.000000
      5 Sb    c      -0.000000      0.000000     -0.000049      0.000000
      6 Sb    c       0.000000     -0.000000      0.000049      0.000000
      7 Te1   c       0.000000     -0.000000      0.000000      0.000000
      8 Te2   c       0.000000     -0.000000      0.000108      0.000000
      9 Te2   c      -0.000000      0.000000     -0.000108      0.000000
     10 Te1   c       0.000000      0.000000     -0.000000      0.000000
     11 Te2   c       0.000000     -0.000000      0.000108      0.000000
     12 Te2   c      -0.000000      0.000000     -0.000108      0.000000
     13 Te1   c      -0.000000      0.000000     -0.000000      0.000000
     14 Te2   c       0.000000     -0.000000      0.000108      0.000000
     15 Te2   c      -0.000000      0.000000     -0.000108      0.000000
--------------------------------------------------------------------------------
  Maximum abs         0.000000      0.000000      0.000108      0.000000
--------------------------------------------------------------------------------



  Elastic Constant Matrix: (Units=GPa)

-------------------------------------------------------------------------------
  Indices      1         2         3         4         5         6    
-------------------------------------------------------------------------------
       1     58.1357   22.5335   15.9997    6.2285   -0.0000   -0.0000
       2     22.5335   58.1357   15.9997   -6.2285    0.0000   -0.0000
       3     15.9997   15.9997   24.0565    0.0000   -0.0000   -0.0000
       4      6.2285   -6.2285    0.0000   14.1665   -0.0000    0.0000
       5     -0.0000    0.0000   -0.0000   -0.0000   14.1665    6.2285
       6     -0.0000   -0.0000   -0.0000    0.0000    6.2285   17.8011
-------------------------------------------------------------------------------


  Elastic Compliance Matrix: (Units=1/GPa)

-------------------------------------------------------------------------------
  Indices      1         2         3         4         5         6    
-------------------------------------------------------------------------------
       1    0.025017 -0.008178 -0.011199 -0.014595  0.000000  0.000000
       2   -0.008178  0.025017 -0.011199  0.014595 -0.000000 -0.000000
       3   -0.011199 -0.011199  0.056466 -0.000000  0.000000  0.000000
       4   -0.014595  0.014595 -0.000000  0.083423  0.000000 -0.000000
       5    0.000000 -0.000000  0.000000  0.000000  0.083423 -0.029189
       6    0.000000 -0.000000  0.000000 -0.000000 -0.029189  0.066390
-------------------------------------------------------------------------------

 Mechanical properties :

-------------------------------------------------------------------------------
  Convention :                    Reuss         Voigt         Hill
-------------------------------------------------------------------------------
  Bulk  Modulus (GPa)     =      22.05252      27.71041      24.88146
  Shear Modulus (GPa)     =      12.01912      14.94646      13.48279
-------------------------------------------------------------------------------
  Velocity S-wave (km/s)  =       4.42775       4.93761       4.68961
  Velocity P-wave (km/s)  =       7.88105       8.81513       8.36114
-------------------------------------------------------------------------------
  Compressibility (1/GPa) =    0.04534630
-------------------------------------------------------------------------------
  Stress axis :                     x             y             z
-------------------------------------------------------------------------------
  Youngs Moduli (GPa)     =      39.97311      39.97311      17.70975
-------------------------------------------------------------------------------
  Poissons Ratio (x)      =                     0.32690       0.19834
  Poissons Ratio (y)      =       0.32690                     0.19834
  Poissons Ratio (z)      =       0.44767       0.44767
-------------------------------------------------------------------------------


  Piezoelectric Strain Matrix: (Units=C/m**2)

-------------------------------------------------------------------------------
  Indices      1         2         3         4         5         6    
-------------------------------------------------------------------------------
       x    -0.00000  -0.00000  -0.00000  -0.00000  -0.00000  -0.00000
       y    -0.00000  -0.00000  -0.00000  -0.00000  -0.00000  -0.00000
       z    -0.00000  -0.00000  -0.00000  -0.00000  -0.00000  -0.00000
-------------------------------------------------------------------------------


  Piezoelectric Stress Matrix: (Units=10**-11 C/N)

-------------------------------------------------------------------------------
  Indices      1         2         3         4         5         6    
-------------------------------------------------------------------------------
       x     0.00000   0.00000   0.00000   0.00000   0.00000   0.00000
       y     0.00000   0.00000   0.00000   0.00000   0.00000   0.00000
       z     0.00000   0.00000   0.00000   0.00000   0.00000   0.00000
-------------------------------------------------------------------------------


  Static dielectric constant tensor : 

-------------------------------------------------------------------------------
              x         y         z
-------------------------------------------------------------------------------
       x     1.00000   0.00000   0.00000
       y     0.00000   1.00000   0.00000
       z     0.00000   0.00000   1.00000
--------------------------------------------------------------------------------

  Static refractive indices : 

-------------------------------------------------------------------------------
    1 =    1.00000      2 =    1.00000      3 =    1.00000
-------------------------------------------------------------------------------


  Time to end of optimisation =    1586.9832 seconds


  Peak dynamic memory used =       2.78 MB 


  Timing analysis for GULP :

--------------------------------------------------------------------------------
  Task / Subroutine                                          Time (Seconds)
--------------------------------------------------------------------------------
  Calculation of real space energy and derivatives             1527.6914
  Sum of squares for fitting                                     40.1626
  Global summation overhead                                       0.9361
--------------------------------------------------------------------------------
  Total CPU time                                               1586.9832
--------------------------------------------------------------------------------


  Dump file written as sb2te3_8.res                                            



  **** GULP has completed with 217 warnings - beware! ****

  Job Finished at 15:10.28 21st July       2010                               

