********************************************************************************
*                       GENERAL UTILITY LATTICE PROGRAM                        *
*                                 Julian Gale                                  *
*                      Nanochemistry Research Institute                        *
*             Curtin University of Technology, Western Australia               *
********************************************************************************
* Version = 3.4.7 * Last modified =  21st July 2009                            *
********************************************************************************
*  fit          - perform fitting run                                          *
*  optimise     - perform optimisation run after fitting                       *
*  property     - calculate properties for final geometry                      *
*  fbfgs        - use full numerical Hessian in BFGS for fitting               *
********************************************************************************

  Job Started  at 13:29.15 22nd July       2010                               

  Number of CPUs =     1


  Total number of configurations input = 219

********************************************************************************
*  Input for Configuration =   1                                               *
********************************************************************************

  Formula = Sb2Te3                                                      

  Number of irreducible atoms/shells =       5


  Total number atoms/shells =       5

  Dimensionality = 3               :  Bulk   



  Cartesian lattice vectors (Angstroms) :

       -2.504286    0.000000   10.443767
        1.252143   -2.168775   10.443767
        1.252143    2.168775   10.443767

  Cell parameters (Angstroms/Degrees):

  a =      10.7398    alpha =  23.3006
  b =      10.7398    beta  =  23.3006
  c =      10.7398    gamma =  23.3006

  Initial cell volume =         170.167643 Angs**3

  Temperature of configuration =  0.000     K 

  Pressure of configuration =         0.000 GPa 

  Fractional coordinates of asymmetric unit :

--------------------------------------------------------------------------------
   No.  Atomic       x           y          z         Charge      Occupancy
        Label      (Frac)      (Frac)     (Frac)        (e)         (Frac)  
--------------------------------------------------------------------------------
      1 Sb    c    0.369021    0.369021    0.369021      0.0000    1.000000    
      2 Sb    c    0.603203    0.603203    0.603203      0.0000    1.000000    
      3 Te1   c    0.000000    0.000000    0.000000      0.0000    1.000000    
      4 Te2   c    0.784571    0.784571    0.784571      0.0000    1.000000    
      5 Te2   c    0.215429    0.215429    0.215429      0.0000    1.000000    
--------------------------------------------------------------------------------



********************************************************************************
*  Input for Configuration =   2                                               *
********************************************************************************

  Formula = Sb2Te3                                                      

  Number of irreducible atoms/shells =       5


  Total number atoms/shells =       5

  Dimensionality = 3               :  Bulk   



  Cartesian lattice vectors (Angstroms) :

       -2.504286    0.000000   10.443767
        1.252143   -2.168775   10.443767
        1.252143    2.168775   10.443767

  Cell parameters (Angstroms/Degrees):

  a =      10.7398    alpha =  23.3006
  b =      10.7398    beta  =  23.3006
  c =      10.7398    gamma =  23.3006

  Initial cell volume =         170.167643 Angs**3

  Temperature of configuration =  0.000     K 

  Pressure of configuration =         0.000 GPa 

  Fractional coordinates of asymmetric unit :

--------------------------------------------------------------------------------
   No.  Atomic       x           y          z         Charge      Occupancy
        Label      (Frac)      (Frac)     (Frac)        (e)         (Frac)  
--------------------------------------------------------------------------------
      1 Sb    c    0.372989    0.372989    0.372989      0.0000    1.000000    
      2 Sb    c    0.603203    0.603203    0.603203      0.0000    1.000000    
      3 Te1   c    0.000000    0.000000    0.000000      0.0000    1.000000    
      4 Te2   c    0.784571    0.784571    0.784571      0.0000    1.000000    
      5 Te2   c    0.215429    0.215429    0.215429      0.0000    1.000000    
--------------------------------------------------------------------------------



********************************************************************************
*  Input for Configuration =   3                                               *
********************************************************************************

  Formula = Sb2Te3                                                      

  Number of irreducible atoms/shells =       5


  Total number atoms/shells =       5

  Dimensionality = 3               :  Bulk   



  Cartesian lattice vectors (Angstroms) :

       -2.504286    0.000000   10.443767
        1.252143   -2.168775   10.443767
        1.252143    2.168775   10.443767

  Cell parameters (Angstroms/Degrees):

  a =      10.7398    alpha =  23.3006
  b =      10.7398    beta  =  23.3006
  c =      10.7398    gamma =  23.3006

  Initial cell volume =         170.167643 Angs**3

  Temperature of configuration =  0.000     K 

  Pressure of configuration =         0.000 GPa 

  Fractional coordinates of asymmetric unit :

--------------------------------------------------------------------------------
   No.  Atomic       x           y          z         Charge      Occupancy
        Label      (Frac)      (Frac)     (Frac)        (e)         (Frac)  
--------------------------------------------------------------------------------
      1 Sb    c    0.376957    0.376957    0.376957      0.0000    1.000000    
      2 Sb    c    0.603203    0.603203    0.603203      0.0000    1.000000    
      3 Te1   c    0.000000    0.000000    0.000000      0.0000    1.000000    
      4 Te2   c    0.784571    0.784571    0.784571      0.0000    1.000000    
      5 Te2   c    0.215429    0.215429    0.215429      0.0000    1.000000    
--------------------------------------------------------------------------------



********************************************************************************
*  Input for Configuration =   4                                               *
********************************************************************************

  Formula = Sb2Te3                                                      

  Number of irreducible atoms/shells =       5


  Total number atoms/shells =       5

  Dimensionality = 3               :  Bulk   



  Cartesian lattice vectors (Angstroms) :

       -2.504286    0.000000   10.443767
        1.252143   -2.168775   10.443767
        1.252143    2.168775   10.443767

  Cell parameters (Angstroms/Degrees):

  a =      10.7398    alpha =  23.3006
  b =      10.7398    beta  =  23.3006
  c =      10.7398    gamma =  23.3006

  Initial cell volume =         170.167643 Angs**3

  Temperature of configuration =  0.000     K 

  Pressure of configuration =         0.000 GPa 

  Fractional coordinates of asymmetric unit :

--------------------------------------------------------------------------------
   No.  Atomic       x           y          z         Charge      Occupancy
        Label      (Frac)      (Frac)     (Frac)        (e)         (Frac)  
--------------------------------------------------------------------------------
      1 Sb    c    0.380925    0.380925    0.380925      0.0000    1.000000    
      2 Sb    c    0.603203    0.603203    0.603203      0.0000    1.000000    
      3 Te1   c    0.000000    0.000000    0.000000      0.0000    1.000000    
      4 Te2   c    0.784571    0.784571    0.784571      0.0000    1.000000    
      5 Te2   c    0.215429    0.215429    0.215429      0.0000    1.000000    
--------------------------------------------------------------------------------



********************************************************************************
*  Input for Configuration =   5                                               *
********************************************************************************

  Formula = Sb2Te3                                                      

  Number of irreducible atoms/shells =       5


  Total number atoms/shells =       5

  Dimensionality = 3               :  Bulk   



  Cartesian lattice vectors (Angstroms) :

       -2.504286    0.000000   10.443767
        1.252143   -2.168775   10.443767
        1.252143    2.168775   10.443767

  Cell parameters (Angstroms/Degrees):

  a =      10.7398    alpha =  23.3006
  b =      10.7398    beta  =  23.3006
  c =      10.7398    gamma =  23.3006

  Initial cell volume =         170.167643 Angs**3

  Temperature of configuration =  0.000     K 

  Pressure of configuration =         0.000 GPa 

  Fractional coordinates of asymmetric unit :

--------------------------------------------------------------------------------
   No.  Atomic       x           y          z         Charge      Occupancy
        Label      (Frac)      (Frac)     (Frac)        (e)         (Frac)  
--------------------------------------------------------------------------------
      1 Sb    c    0.384893    0.384893    0.384893      0.0000    1.000000    
      2 Sb    c    0.603203    0.603203    0.603203      0.0000    1.000000    
      3 Te1   c    0.000000    0.000000    0.000000      0.0000    1.000000    
      4 Te2   c    0.784571    0.784571    0.784571      0.0000    1.000000    
      5 Te2   c    0.215429    0.215429    0.215429      0.0000    1.000000    
--------------------------------------------------------------------------------



********************************************************************************
*  Input for Configuration =   6                                               *
********************************************************************************

  Formula = Sb2Te3                                                      

  Number of irreducible atoms/shells =       5


  Total number atoms/shells =       5

  Dimensionality = 3               :  Bulk   



  Cartesian lattice vectors (Angstroms) :

       -2.504286    0.000000   10.443767
        1.252143   -2.168775   10.443767
        1.252143    2.168775   10.443767

  Cell parameters (Angstroms/Degrees):

  a =      10.7398    alpha =  23.3006
  b =      10.7398    beta  =  23.3006
  c =      10.7398    gamma =  23.3006

  Initial cell volume =         170.167643 Angs**3

  Temperature of configuration =  0.000     K 

  Pressure of configuration =         0.000 GPa 

  Fractional coordinates of asymmetric unit :

--------------------------------------------------------------------------------
   No.  Atomic       x           y          z         Charge      Occupancy
        Label      (Frac)      (Frac)     (Frac)        (e)         (Frac)  
--------------------------------------------------------------------------------
      1 Sb    c    0.388861    0.388861    0.388861      0.0000    1.000000    
      2 Sb    c    0.603203    0.603203    0.603203      0.0000    1.000000    
      3 Te1   c    0.000000    0.000000    0.000000      0.0000    1.000000    
      4 Te2   c    0.784571    0.784571    0.784571      0.0000    1.000000    
      5 Te2   c    0.215429    0.215429    0.215429      0.0000    1.000000    
--------------------------------------------------------------------------------



********************************************************************************
*  Input for Configuration =   7                                               *
********************************************************************************

  Formula = Sb2Te3                                                      

  Number of irreducible atoms/shells =       5


  Total number atoms/shells =       5

  Dimensionality = 3               :  Bulk   



  Cartesian lattice vectors (Angstroms) :

       -2.504286    0.000000   10.443767
        1.252143   -2.168775   10.443767
        1.252143    2.168775   10.443767

  Cell parameters (Angstroms/Degrees):

  a =      10.7398    alpha =  23.3006
  b =      10.7398    beta  =  23.3006
  c =      10.7398    gamma =  23.3006

  Initial cell volume =         170.167643 Angs**3

  Temperature of configuration =  0.000     K 

  Pressure of configuration =         0.000 GPa 

  Fractional coordinates of asymmetric unit :

--------------------------------------------------------------------------------
   No.  Atomic       x           y          z         Charge      Occupancy
        Label      (Frac)      (Frac)     (Frac)        (e)         (Frac)  
--------------------------------------------------------------------------------
      1 Sb    c    0.392829    0.392829    0.392829      0.0000    1.000000    
      2 Sb    c    0.603203    0.603203    0.603203      0.0000    1.000000    
      3 Te1   c    0.000000    0.000000    0.000000      0.0000    1.000000    
      4 Te2   c    0.784571    0.784571    0.784571      0.0000    1.000000    
      5 Te2   c    0.215429    0.215429    0.215429      0.0000    1.000000    
--------------------------------------------------------------------------------



********************************************************************************
*  Input for Configuration =   8                                               *
********************************************************************************

  Formula = Sb2Te3                                                      

  Number of irreducible atoms/shells =       5


  Total number atoms/shells =       5

  Dimensionality = 3               :  Bulk   



  Cartesian lattice vectors (Angstroms) :

       -2.504286    0.000000   10.443767
        1.252143   -2.168775   10.443767
        1.252143    2.168775   10.443767

  Cell parameters (Angstroms/Degrees):

  a =      10.7398    alpha =  23.3006
  b =      10.7398    beta  =  23.3006
  c =      10.7398    gamma =  23.3006

  Initial cell volume =         170.167643 Angs**3

  Temperature of configuration =  0.000     K 

  Pressure of configuration =         0.000 GPa 

  Fractional coordinates of asymmetric unit :

--------------------------------------------------------------------------------
   No.  Atomic       x           y          z         Charge      Occupancy
        Label      (Frac)      (Frac)     (Frac)        (e)         (Frac)  
--------------------------------------------------------------------------------
      1 Sb    c    0.396797    0.396797    0.396797      0.0000    1.000000    
      2 Sb    c    0.603203    0.603203    0.603203      0.0000    1.000000    
      3 Te1   c    0.000000    0.000000    0.000000      0.0000    1.000000    
      4 Te2   c    0.784571    0.784571    0.784571      0.0000    1.000000    
      5 Te2   c    0.215429    0.215429    0.215429      0.0000    1.000000    
--------------------------------------------------------------------------------



********************************************************************************
*  Input for Configuration =   9                                               *
********************************************************************************

  Formula = Sb2Te3                                                      

  Number of irreducible atoms/shells =       5


  Total number atoms/shells =       5

  Dimensionality = 3               :  Bulk   



  Cartesian lattice vectors (Angstroms) :

       -2.504286    0.000000   10.443767
        1.252143   -2.168775   10.443767
        1.252143    2.168775   10.443767

  Cell parameters (Angstroms/Degrees):

  a =      10.7398    alpha =  23.3006
  b =      10.7398    beta  =  23.3006
  c =      10.7398    gamma =  23.3006

  Initial cell volume =         170.167643 Angs**3

  Temperature of configuration =  0.000     K 

  Pressure of configuration =         0.000 GPa 

  Fractional coordinates of asymmetric unit :

--------------------------------------------------------------------------------
   No.  Atomic       x           y          z         Charge      Occupancy
        Label      (Frac)      (Frac)     (Frac)        (e)         (Frac)  
--------------------------------------------------------------------------------
      1 Sb    c    0.400765    0.400765    0.400765      0.0000    1.000000    
      2 Sb    c    0.603203    0.603203    0.603203      0.0000    1.000000    
      3 Te1   c    0.000000    0.000000    0.000000      0.0000    1.000000    
      4 Te2   c    0.784571    0.784571    0.784571      0.0000    1.000000    
      5 Te2   c    0.215429    0.215429    0.215429      0.0000    1.000000    
--------------------------------------------------------------------------------



********************************************************************************
*  Input for Configuration =  10                                               *
********************************************************************************

  Formula = Sb2Te3                                                      

  Number of irreducible atoms/shells =       5


  Total number atoms/shells =       5

  Dimensionality = 3               :  Bulk   



  Cartesian lattice vectors (Angstroms) :

       -2.504286    0.000000   10.443767
        1.252143   -2.168775   10.443767
        1.252143    2.168775   10.443767

  Cell parameters (Angstroms/Degrees):

  a =      10.7398    alpha =  23.3006
  b =      10.7398    beta  =  23.3006
  c =      10.7398    gamma =  23.3006

  Initial cell volume =         170.167643 Angs**3

  Temperature of configuration =  0.000     K 

  Pressure of configuration =         0.000 GPa 

  Fractional coordinates of asymmetric unit :

--------------------------------------------------------------------------------
   No.  Atomic       x           y          z         Charge      Occupancy
        Label      (Frac)      (Frac)     (Frac)        (e)         (Frac)  
--------------------------------------------------------------------------------
      1 Sb    c    0.404733    0.404733    0.404733      0.0000    1.000000    
      2 Sb    c    0.603203    0.603203    0.603203      0.0000    1.000000    
      3 Te1   c    0.000000    0.000000    0.000000      0.0000    1.000000    
      4 Te2   c    0.784571    0.784571    0.784571      0.0000    1.000000    
      5 Te2   c    0.215429    0.215429    0.215429      0.0000    1.000000    
--------------------------------------------------------------------------------



********************************************************************************
*  Input for Configuration =  11                                               *
********************************************************************************

  Formula = Sb2Te3                                                      

  Number of irreducible atoms/shells =       5


  Total number atoms/shells =       5

  Dimensionality = 3               :  Bulk   



  Cartesian lattice vectors (Angstroms) :

       -2.504286    0.000000   10.443767
        1.252143   -2.168775   10.443767
        1.252143    2.168775   10.443767

  Cell parameters (Angstroms/Degrees):

  a =      10.7398    alpha =  23.3006
  b =      10.7398    beta  =  23.3006
  c =      10.7398    gamma =  23.3006

  Initial cell volume =         170.167643 Angs**3

  Temperature of configuration =  0.000     K 

  Pressure of configuration =         0.000 GPa 

  Fractional coordinates of asymmetric unit :

--------------------------------------------------------------------------------
   No.  Atomic       x           y          z         Charge      Occupancy
        Label      (Frac)      (Frac)     (Frac)        (e)         (Frac)  
--------------------------------------------------------------------------------
      1 Sb    c    0.408700    0.408700    0.408700      0.0000    1.000000    
      2 Sb    c    0.603203    0.603203    0.603203      0.0000    1.000000    
      3 Te1   c    0.000000    0.000000    0.000000      0.0000    1.000000    
      4 Te2   c    0.784571    0.784571    0.784571      0.0000    1.000000    
      5 Te2   c    0.215429    0.215429    0.215429      0.0000    1.000000    
--------------------------------------------------------------------------------



********************************************************************************
*  Input for Configuration =  12                                               *
********************************************************************************

  Formula = Sb2Te3                                                      

  Number of irreducible atoms/shells =       5


  Total number atoms/shells =       5

  Dimensionality = 3               :  Bulk   



  Cartesian lattice vectors (Angstroms) :

       -2.504286    0.000000   10.443767
        1.252143   -2.168775   10.443767
        1.252143    2.168775   10.443767

  Cell parameters (Angstroms/Degrees):

  a =      10.7398    alpha =  23.3006
  b =      10.7398    beta  =  23.3006
  c =      10.7398    gamma =  23.3006

  Initial cell volume =         170.167643 Angs**3

  Temperature of configuration =  0.000     K 

  Pressure of configuration =         0.000 GPa 

  Fractional coordinates of asymmetric unit :

--------------------------------------------------------------------------------
   No.  Atomic       x           y          z         Charge      Occupancy
        Label      (Frac)      (Frac)     (Frac)        (e)         (Frac)  
--------------------------------------------------------------------------------
      1 Sb    c    0.412668    0.412668    0.412668      0.0000    1.000000    
      2 Sb    c    0.603203    0.603203    0.603203      0.0000    1.000000    
      3 Te1   c    0.000000    0.000000    0.000000      0.0000    1.000000    
      4 Te2   c    0.784571    0.784571    0.784571      0.0000    1.000000    
      5 Te2   c    0.215429    0.215429    0.215429      0.0000    1.000000    
--------------------------------------------------------------------------------



********************************************************************************
*  Input for Configuration =  13                                               *
********************************************************************************

  Formula = Sb2Te3                                                      

  Number of irreducible atoms/shells =       5


  Total number atoms/shells =       5

  Dimensionality = 3               :  Bulk   



  Cartesian lattice vectors (Angstroms) :

       -2.504286    0.000000   10.443767
        1.252143   -2.168775   10.443767
        1.252143    2.168775   10.443767

  Cell parameters (Angstroms/Degrees):

  a =      10.7398    alpha =  23.3006
  b =      10.7398    beta  =  23.3006
  c =      10.7398    gamma =  23.3006

  Initial cell volume =         170.167643 Angs**3

  Temperature of configuration =  0.000     K 

  Pressure of configuration =         0.000 GPa 

  Fractional coordinates of asymmetric unit :

--------------------------------------------------------------------------------
   No.  Atomic       x           y          z         Charge      Occupancy
        Label      (Frac)      (Frac)     (Frac)        (e)         (Frac)  
--------------------------------------------------------------------------------
      1 Sb    c    0.416636    0.416636    0.416636      0.0000    1.000000    
      2 Sb    c    0.603203    0.603203    0.603203      0.0000    1.000000    
      3 Te1   c    0.000000    0.000000    0.000000      0.0000    1.000000    
      4 Te2   c    0.784571    0.784571    0.784571      0.0000    1.000000    
      5 Te2   c    0.215429    0.215429    0.215429      0.0000    1.000000    
--------------------------------------------------------------------------------



********************************************************************************
*  Input for Configuration =  14                                               *
********************************************************************************

  Formula = Sb2Te3                                                      

  Number of irreducible atoms/shells =       5


  Total number atoms/shells =       5

  Dimensionality = 3               :  Bulk   



  Cartesian lattice vectors (Angstroms) :

       -2.504286    0.000000   10.443767
        1.252143   -2.168775   10.443767
        1.252143    2.168775   10.443767

  Cell parameters (Angstroms/Degrees):

  a =      10.7398    alpha =  23.3006
  b =      10.7398    beta  =  23.3006
  c =      10.7398    gamma =  23.3006

  Initial cell volume =         170.167643 Angs**3

  Temperature of configuration =  0.000     K 

  Pressure of configuration =         0.000 GPa 

  Fractional coordinates of asymmetric unit :

--------------------------------------------------------------------------------
   No.  Atomic       x           y          z         Charge      Occupancy
        Label      (Frac)      (Frac)     (Frac)        (e)         (Frac)  
--------------------------------------------------------------------------------
      1 Sb    c    0.420604    0.420604    0.420604      0.0000    1.000000    
      2 Sb    c    0.603203    0.603203    0.603203      0.0000    1.000000    
      3 Te1   c    0.000000    0.000000    0.000000      0.0000    1.000000    
      4 Te2   c    0.784571    0.784571    0.784571      0.0000    1.000000    
      5 Te2   c    0.215429    0.215429    0.215429      0.0000    1.000000    
--------------------------------------------------------------------------------



********************************************************************************
*  Input for Configuration =  15                                               *
********************************************************************************

  Formula = Sb2Te3                                                      

  Number of irreducible atoms/shells =       5


  Total number atoms/shells =       5

  Dimensionality = 3               :  Bulk   



  Cartesian lattice vectors (Angstroms) :

       -2.504286    0.000000   10.443767
        1.252143   -2.168775   10.443767
        1.252143    2.168775   10.443767

  Cell parameters (Angstroms/Degrees):

  a =      10.7398    alpha =  23.3006
  b =      10.7398    beta  =  23.3006
  c =      10.7398    gamma =  23.3006

  Initial cell volume =         170.167643 Angs**3

  Temperature of configuration =  0.000     K 

  Pressure of configuration =         0.000 GPa 

  Fractional coordinates of asymmetric unit :

--------------------------------------------------------------------------------
   No.  Atomic       x           y          z         Charge      Occupancy
        Label      (Frac)      (Frac)     (Frac)        (e)         (Frac)  
--------------------------------------------------------------------------------
      1 Sb    c    0.424572    0.424572    0.424572      0.0000    1.000000    
      2 Sb    c    0.603203    0.603203    0.603203      0.0000    1.000000    
      3 Te1   c    0.000000    0.000000    0.000000      0.0000    1.000000    
      4 Te2   c    0.784571    0.784571    0.784571      0.0000    1.000000    
      5 Te2   c    0.215429    0.215429    0.215429      0.0000    1.000000    
--------------------------------------------------------------------------------



********************************************************************************
*  Input for Configuration =  16                                               *
********************************************************************************

  Formula = Sb2Te3                                                      

  Number of irreducible atoms/shells =       5


  Total number atoms/shells =       5

  Dimensionality = 3               :  Bulk   



  Cartesian lattice vectors (Angstroms) :

       -2.504286    0.000000   10.443767
        1.252143   -2.168775   10.443767
        1.252143    2.168775   10.443767

  Cell parameters (Angstroms/Degrees):

  a =      10.7398    alpha =  23.3006
  b =      10.7398    beta  =  23.3006
  c =      10.7398    gamma =  23.3006

  Initial cell volume =         170.167643 Angs**3

  Temperature of configuration =  0.000     K 

  Pressure of configuration =         0.000 GPa 

  Fractional coordinates of asymmetric unit :

--------------------------------------------------------------------------------
   No.  Atomic       x           y          z         Charge      Occupancy
        Label      (Frac)      (Frac)     (Frac)        (e)         (Frac)  
--------------------------------------------------------------------------------
      1 Sb    c    0.396797    0.396797    0.396797      0.0000    1.000000    
      2 Sb    c    0.560979    0.560979    0.560979      0.0000    1.000000    
      3 Te1   c    0.000000    0.000000    0.000000      0.0000    1.000000    
      4 Te2   c    0.784571    0.784571    0.784571      0.0000    1.000000    
      5 Te2   c    0.215429    0.215429    0.215429      0.0000    1.000000    
--------------------------------------------------------------------------------



********************************************************************************
*  Input for Configuration =  17                                               *
********************************************************************************

  Formula = Sb2Te3                                                      

  Number of irreducible atoms/shells =       5


  Total number atoms/shells =       5

  Dimensionality = 3               :  Bulk   



  Cartesian lattice vectors (Angstroms) :

       -2.504286    0.000000   10.443767
        1.252143   -2.168775   10.443767
        1.252143    2.168775   10.443767

  Cell parameters (Angstroms/Degrees):

  a =      10.7398    alpha =  23.3006
  b =      10.7398    beta  =  23.3006
  c =      10.7398    gamma =  23.3006

  Initial cell volume =         170.167643 Angs**3

  Temperature of configuration =  0.000     K 

  Pressure of configuration =         0.000 GPa 

  Fractional coordinates of asymmetric unit :

--------------------------------------------------------------------------------
   No.  Atomic       x           y          z         Charge      Occupancy
        Label      (Frac)      (Frac)     (Frac)        (e)         (Frac)  
--------------------------------------------------------------------------------
      1 Sb    c    0.396797    0.396797    0.396797      0.0000    1.000000    
      2 Sb    c    0.567011    0.567011    0.567011      0.0000    1.000000    
      3 Te1   c    0.000000    0.000000    0.000000      0.0000    1.000000    
      4 Te2   c    0.784571    0.784571    0.784571      0.0000    1.000000    
      5 Te2   c    0.215429    0.215429    0.215429      0.0000    1.000000    
--------------------------------------------------------------------------------



********************************************************************************
*  Input for Configuration =  18                                               *
********************************************************************************

  Formula = Sb2Te3                                                      

  Number of irreducible atoms/shells =       5


  Total number atoms/shells =       5

  Dimensionality = 3               :  Bulk   



  Cartesian lattice vectors (Angstroms) :

       -2.504286    0.000000   10.443767
        1.252143   -2.168775   10.443767
        1.252143    2.168775   10.443767

  Cell parameters (Angstroms/Degrees):

  a =      10.7398    alpha =  23.3006
  b =      10.7398    beta  =  23.3006
  c =      10.7398    gamma =  23.3006

  Initial cell volume =         170.167643 Angs**3

  Temperature of configuration =  0.000     K 

  Pressure of configuration =         0.000 GPa 

  Fractional coordinates of asymmetric unit :

--------------------------------------------------------------------------------
   No.  Atomic       x           y          z         Charge      Occupancy
        Label      (Frac)      (Frac)     (Frac)        (e)         (Frac)  
--------------------------------------------------------------------------------
      1 Sb    c    0.396797    0.396797    0.396797      0.0000    1.000000    
      2 Sb    c    0.573043    0.573043    0.573043      0.0000    1.000000    
      3 Te1   c    0.000000    0.000000    0.000000      0.0000    1.000000    
      4 Te2   c    0.784571    0.784571    0.784571      0.0000    1.000000    
      5 Te2   c    0.215429    0.215429    0.215429      0.0000    1.000000    
--------------------------------------------------------------------------------



********************************************************************************
*  Input for Configuration =  19                                               *
********************************************************************************

  Formula = Sb2Te3                                                      

  Number of irreducible atoms/shells =       5


  Total number atoms/shells =       5

  Dimensionality = 3               :  Bulk   



  Cartesian lattice vectors (Angstroms) :

       -2.504286    0.000000   10.443767
        1.252143   -2.168775   10.443767
        1.252143    2.168775   10.443767

  Cell parameters (Angstroms/Degrees):

  a =      10.7398    alpha =  23.3006
  b =      10.7398    beta  =  23.3006
  c =      10.7398    gamma =  23.3006

  Initial cell volume =         170.167643 Angs**3

  Temperature of configuration =  0.000     K 

  Pressure of configuration =         0.000 GPa 

  Fractional coordinates of asymmetric unit :

--------------------------------------------------------------------------------
   No.  Atomic       x           y          z         Charge      Occupancy
        Label      (Frac)      (Frac)     (Frac)        (e)         (Frac)  
--------------------------------------------------------------------------------
      1 Sb    c    0.396797    0.396797    0.396797      0.0000    1.000000    
      2 Sb    c    0.579075    0.579075    0.579075      0.0000    1.000000    
      3 Te1   c    0.000000    0.000000    0.000000      0.0000    1.000000    
      4 Te2   c    0.784571    0.784571    0.784571      0.0000    1.000000    
      5 Te2   c    0.215429    0.215429    0.215429      0.0000    1.000000    
--------------------------------------------------------------------------------



********************************************************************************
*  Input for Configuration =  20                                               *
********************************************************************************

  Formula = Sb2Te3                                                      

  Number of irreducible atoms/shells =       5


  Total number atoms/shells =       5

  Dimensionality = 3               :  Bulk   



  Cartesian lattice vectors (Angstroms) :

       -2.504286    0.000000   10.443767
        1.252143   -2.168775   10.443767
        1.252143    2.168775   10.443767

  Cell parameters (Angstroms/Degrees):

  a =      10.7398    alpha =  23.3006
  b =      10.7398    beta  =  23.3006
  c =      10.7398    gamma =  23.3006

  Initial cell volume =         170.167643 Angs**3

  Temperature of configuration =  0.000     K 

  Pressure of configuration =         0.000 GPa 

  Fractional coordinates of asymmetric unit :

--------------------------------------------------------------------------------
   No.  Atomic       x           y          z         Charge      Occupancy
        Label      (Frac)      (Frac)     (Frac)        (e)         (Frac)  
--------------------------------------------------------------------------------
      1 Sb    c    0.396797    0.396797    0.396797      0.0000    1.000000    
      2 Sb    c    0.585107    0.585107    0.585107      0.0000    1.000000    
      3 Te1   c    0.000000    0.000000    0.000000      0.0000    1.000000    
      4 Te2   c    0.784571    0.784571    0.784571      0.0000    1.000000    
      5 Te2   c    0.215429    0.215429    0.215429      0.0000    1.000000    
--------------------------------------------------------------------------------



********************************************************************************
*  Input for Configuration =  21                                               *
********************************************************************************

  Formula = Sb2Te3                                                      

  Number of irreducible atoms/shells =       5


  Total number atoms/shells =       5

  Dimensionality = 3               :  Bulk   



  Cartesian lattice vectors (Angstroms) :

       -2.504286    0.000000   10.443767
        1.252143   -2.168775   10.443767
        1.252143    2.168775   10.443767

  Cell parameters (Angstroms/Degrees):

  a =      10.7398    alpha =  23.3006
  b =      10.7398    beta  =  23.3006
  c =      10.7398    gamma =  23.3006

  Initial cell volume =         170.167643 Angs**3

  Temperature of configuration =  0.000     K 

  Pressure of configuration =         0.000 GPa 

  Fractional coordinates of asymmetric unit :

--------------------------------------------------------------------------------
   No.  Atomic       x           y          z         Charge      Occupancy
        Label      (Frac)      (Frac)     (Frac)        (e)         (Frac)  
--------------------------------------------------------------------------------
      1 Sb    c    0.396797    0.396797    0.396797      0.0000    1.000000    
      2 Sb    c    0.591139    0.591139    0.591139      0.0000    1.000000    
      3 Te1   c    0.000000    0.000000    0.000000      0.0000    1.000000    
      4 Te2   c    0.784571    0.784571    0.784571      0.0000    1.000000    
      5 Te2   c    0.215429    0.215429    0.215429      0.0000    1.000000    
--------------------------------------------------------------------------------



********************************************************************************
*  Input for Configuration =  22                                               *
********************************************************************************

  Formula = Sb2Te3                                                      

  Number of irreducible atoms/shells =       5


  Total number atoms/shells =       5

  Dimensionality = 3               :  Bulk   



  Cartesian lattice vectors (Angstroms) :

       -2.504286    0.000000   10.443767
        1.252143   -2.168775   10.443767
        1.252143    2.168775   10.443767

  Cell parameters (Angstroms/Degrees):

  a =      10.7398    alpha =  23.3006
  b =      10.7398    beta  =  23.3006
  c =      10.7398    gamma =  23.3006

  Initial cell volume =         170.167643 Angs**3

  Temperature of configuration =  0.000     K 

  Pressure of configuration =         0.000 GPa 

  Fractional coordinates of asymmetric unit :

--------------------------------------------------------------------------------
   No.  Atomic       x           y          z         Charge      Occupancy
        Label      (Frac)      (Frac)     (Frac)        (e)         (Frac)  
--------------------------------------------------------------------------------
      1 Sb    c    0.396797    0.396797    0.396797      0.0000    1.000000    
      2 Sb    c    0.597171    0.597171    0.597171      0.0000    1.000000    
      3 Te1   c    0.000000    0.000000    0.000000      0.0000    1.000000    
      4 Te2   c    0.784571    0.784571    0.784571      0.0000    1.000000    
      5 Te2   c    0.215429    0.215429    0.215429      0.0000    1.000000    
--------------------------------------------------------------------------------



********************************************************************************
*  Input for Configuration =  23                                               *
********************************************************************************

  Formula = Sb2Te3                                                      

  Number of irreducible atoms/shells =       5


  Total number atoms/shells =       5

  Dimensionality = 3               :  Bulk   



  Cartesian lattice vectors (Angstroms) :

       -2.504286    0.000000   10.443767
        1.252143   -2.168775   10.443767
        1.252143    2.168775   10.443767

  Cell parameters (Angstroms/Degrees):

  a =      10.7398    alpha =  23.3006
  b =      10.7398    beta  =  23.3006
  c =      10.7398    gamma =  23.3006

  Initial cell volume =         170.167643 Angs**3

  Temperature of configuration =  0.000     K 

  Pressure of configuration =         0.000 GPa 

  Fractional coordinates of asymmetric unit :

--------------------------------------------------------------------------------
   No.  Atomic       x           y          z         Charge      Occupancy
        Label      (Frac)      (Frac)     (Frac)        (e)         (Frac)  
--------------------------------------------------------------------------------
      1 Sb    c    0.396797    0.396797    0.396797      0.0000    1.000000    
      2 Sb    c    0.603203    0.603203    0.603203      0.0000    1.000000    
      3 Te1   c    0.000000    0.000000    0.000000      0.0000    1.000000    
      4 Te2   c    0.784571    0.784571    0.784571      0.0000    1.000000    
      5 Te2   c    0.215429    0.215429    0.215429      0.0000    1.000000    
--------------------------------------------------------------------------------



********************************************************************************
*  Input for Configuration =  24                                               *
********************************************************************************

  Formula = Sb2Te3                                                      

  Number of irreducible atoms/shells =       5


  Total number atoms/shells =       5

  Dimensionality = 3               :  Bulk   



  Cartesian lattice vectors (Angstroms) :

       -2.504286    0.000000   10.443767
        1.252143   -2.168775   10.443767
        1.252143    2.168775   10.443767

  Cell parameters (Angstroms/Degrees):

  a =      10.7398    alpha =  23.3006
  b =      10.7398    beta  =  23.3006
  c =      10.7398    gamma =  23.3006

  Initial cell volume =         170.167643 Angs**3

  Temperature of configuration =  0.000     K 

  Pressure of configuration =         0.000 GPa 

  Fractional coordinates of asymmetric unit :

--------------------------------------------------------------------------------
   No.  Atomic       x           y          z         Charge      Occupancy
        Label      (Frac)      (Frac)     (Frac)        (e)         (Frac)  
--------------------------------------------------------------------------------
      1 Sb    c    0.396797    0.396797    0.396797      0.0000    1.000000    
      2 Sb    c    0.609235    0.609235    0.609235      0.0000    1.000000    
      3 Te1   c    0.000000    0.000000    0.000000      0.0000    1.000000    
      4 Te2   c    0.784571    0.784571    0.784571      0.0000    1.000000    
      5 Te2   c    0.215429    0.215429    0.215429      0.0000    1.000000    
--------------------------------------------------------------------------------



********************************************************************************
*  Input for Configuration =  25                                               *
********************************************************************************

  Formula = Sb2Te3                                                      

  Number of irreducible atoms/shells =       5


  Total number atoms/shells =       5

  Dimensionality = 3               :  Bulk   



  Cartesian lattice vectors (Angstroms) :

       -2.504286    0.000000   10.443767
        1.252143   -2.168775   10.443767
        1.252143    2.168775   10.443767

  Cell parameters (Angstroms/Degrees):

  a =      10.7398    alpha =  23.3006
  b =      10.7398    beta  =  23.3006
  c =      10.7398    gamma =  23.3006

  Initial cell volume =         170.167643 Angs**3

  Temperature of configuration =  0.000     K 

  Pressure of configuration =         0.000 GPa 

  Fractional coordinates of asymmetric unit :

--------------------------------------------------------------------------------
   No.  Atomic       x           y          z         Charge      Occupancy
        Label      (Frac)      (Frac)     (Frac)        (e)         (Frac)  
--------------------------------------------------------------------------------
      1 Sb    c    0.396797    0.396797    0.396797      0.0000    1.000000    
      2 Sb    c    0.615267    0.615267    0.615267      0.0000    1.000000    
      3 Te1   c    0.000000    0.000000    0.000000      0.0000    1.000000    
      4 Te2   c    0.784571    0.784571    0.784571      0.0000    1.000000    
      5 Te2   c    0.215429    0.215429    0.215429      0.0000    1.000000    
--------------------------------------------------------------------------------



********************************************************************************
*  Input for Configuration =  26                                               *
********************************************************************************

  Formula = Sb2Te3                                                      

  Number of irreducible atoms/shells =       5


  Total number atoms/shells =       5

  Dimensionality = 3               :  Bulk   



  Cartesian lattice vectors (Angstroms) :

       -2.504286    0.000000   10.443767
        1.252143   -2.168775   10.443767
        1.252143    2.168775   10.443767

  Cell parameters (Angstroms/Degrees):

  a =      10.7398    alpha =  23.3006
  b =      10.7398    beta  =  23.3006
  c =      10.7398    gamma =  23.3006

  Initial cell volume =         170.167643 Angs**3

  Temperature of configuration =  0.000     K 

  Pressure of configuration =         0.000 GPa 

  Fractional coordinates of asymmetric unit :

--------------------------------------------------------------------------------
   No.  Atomic       x           y          z         Charge      Occupancy
        Label      (Frac)      (Frac)     (Frac)        (e)         (Frac)  
--------------------------------------------------------------------------------
      1 Sb    c    0.396797    0.396797    0.396797      0.0000    1.000000    
      2 Sb    c    0.621300    0.621300    0.621300      0.0000    1.000000    
      3 Te1   c    0.000000    0.000000    0.000000      0.0000    1.000000    
      4 Te2   c    0.784571    0.784571    0.784571      0.0000    1.000000    
      5 Te2   c    0.215429    0.215429    0.215429      0.0000    1.000000    
--------------------------------------------------------------------------------



********************************************************************************
*  Input for Configuration =  27                                               *
********************************************************************************

  Formula = Sb2Te3                                                      

  Number of irreducible atoms/shells =       5


  Total number atoms/shells =       5

  Dimensionality = 3               :  Bulk   



  Cartesian lattice vectors (Angstroms) :

       -2.504286    0.000000   10.443767
        1.252143   -2.168775   10.443767
        1.252143    2.168775   10.443767

  Cell parameters (Angstroms/Degrees):

  a =      10.7398    alpha =  23.3006
  b =      10.7398    beta  =  23.3006
  c =      10.7398    gamma =  23.3006

  Initial cell volume =         170.167643 Angs**3

  Temperature of configuration =  0.000     K 

  Pressure of configuration =         0.000 GPa 

  Fractional coordinates of asymmetric unit :

--------------------------------------------------------------------------------
   No.  Atomic       x           y          z         Charge      Occupancy
        Label      (Frac)      (Frac)     (Frac)        (e)         (Frac)  
--------------------------------------------------------------------------------
      1 Sb    c    0.396797    0.396797    0.396797      0.0000    1.000000    
      2 Sb    c    0.627332    0.627332    0.627332      0.0000    1.000000    
      3 Te1   c    0.000000    0.000000    0.000000      0.0000    1.000000    
      4 Te2   c    0.784571    0.784571    0.784571      0.0000    1.000000    
      5 Te2   c    0.215429    0.215429    0.215429      0.0000    1.000000    
--------------------------------------------------------------------------------



********************************************************************************
*  Input for Configuration =  28                                               *
********************************************************************************

  Formula = Sb2Te3                                                      

  Number of irreducible atoms/shells =       5


  Total number atoms/shells =       5

  Dimensionality = 3               :  Bulk   



  Cartesian lattice vectors (Angstroms) :

       -2.504286    0.000000   10.443767
        1.252143   -2.168775   10.443767
        1.252143    2.168775   10.443767

  Cell parameters (Angstroms/Degrees):

  a =      10.7398    alpha =  23.3006
  b =      10.7398    beta  =  23.3006
  c =      10.7398    gamma =  23.3006

  Initial cell volume =         170.167643 Angs**3

  Temperature of configuration =  0.000     K 

  Pressure of configuration =         0.000 GPa 

  Fractional coordinates of asymmetric unit :

--------------------------------------------------------------------------------
   No.  Atomic       x           y          z         Charge      Occupancy
        Label      (Frac)      (Frac)     (Frac)        (e)         (Frac)  
--------------------------------------------------------------------------------
      1 Sb    c    0.396797    0.396797    0.396797      0.0000    1.000000    
      2 Sb    c    0.633364    0.633364    0.633364      0.0000    1.000000    
      3 Te1   c    0.000000    0.000000    0.000000      0.0000    1.000000    
      4 Te2   c    0.784571    0.784571    0.784571      0.0000    1.000000    
      5 Te2   c    0.215429    0.215429    0.215429      0.0000    1.000000    
--------------------------------------------------------------------------------



********************************************************************************
*  Input for Configuration =  29                                               *
********************************************************************************

  Formula = Sb2Te3                                                      

  Number of irreducible atoms/shells =       5


  Total number atoms/shells =       5

  Dimensionality = 3               :  Bulk   



  Cartesian lattice vectors (Angstroms) :

       -2.504286    0.000000   10.443767
        1.252143   -2.168775   10.443767
        1.252143    2.168775   10.443767

  Cell parameters (Angstroms/Degrees):

  a =      10.7398    alpha =  23.3006
  b =      10.7398    beta  =  23.3006
  c =      10.7398    gamma =  23.3006

  Initial cell volume =         170.167643 Angs**3

  Temperature of configuration =  0.000     K 

  Pressure of configuration =         0.000 GPa 

  Fractional coordinates of asymmetric unit :

--------------------------------------------------------------------------------
   No.  Atomic       x           y          z         Charge      Occupancy
        Label      (Frac)      (Frac)     (Frac)        (e)         (Frac)  
--------------------------------------------------------------------------------
      1 Sb    c    0.396797    0.396797    0.396797      0.0000    1.000000    
      2 Sb    c    0.639396    0.639396    0.639396      0.0000    1.000000    
      3 Te1   c    0.000000    0.000000    0.000000      0.0000    1.000000    
      4 Te2   c    0.784571    0.784571    0.784571      0.0000    1.000000    
      5 Te2   c    0.215429    0.215429    0.215429      0.0000    1.000000    
--------------------------------------------------------------------------------



********************************************************************************
*  Input for Configuration =  30                                               *
********************************************************************************

  Formula = Sb2Te3                                                      

  Number of irreducible atoms/shells =       5


  Total number atoms/shells =       5

  Dimensionality = 3               :  Bulk   



  Cartesian lattice vectors (Angstroms) :

       -2.504286    0.000000   10.443767
        1.252143   -2.168775   10.443767
        1.252143    2.168775   10.443767

  Cell parameters (Angstroms/Degrees):

  a =      10.7398    alpha =  23.3006
  b =      10.7398    beta  =  23.3006
  c =      10.7398    gamma =  23.3006

  Initial cell volume =         170.167643 Angs**3

  Temperature of configuration =  0.000     K 

  Pressure of configuration =         0.000 GPa 

  Fractional coordinates of asymmetric unit :

--------------------------------------------------------------------------------
   No.  Atomic       x           y          z         Charge      Occupancy
        Label      (Frac)      (Frac)     (Frac)        (e)         (Frac)  
--------------------------------------------------------------------------------
      1 Sb    c    0.396797    0.396797    0.396797      0.0000    1.000000    
      2 Sb    c    0.645428    0.645428    0.645428      0.0000    1.000000    
      3 Te1   c    0.000000    0.000000    0.000000      0.0000    1.000000    
      4 Te2   c    0.784571    0.784571    0.784571      0.0000    1.000000    
      5 Te2   c    0.215429    0.215429    0.215429      0.0000    1.000000    
--------------------------------------------------------------------------------



********************************************************************************
*  Input for Configuration =  31                                               *
********************************************************************************

  Formula = Sb2Te3                                                      

  Number of irreducible atoms/shells =       5


  Total number atoms/shells =       5

  Dimensionality = 3               :  Bulk   



  Cartesian lattice vectors (Angstroms) :

       -2.504286    0.000000   10.443767
        1.252143   -2.168775   10.443767
        1.252143    2.168775   10.443767

  Cell parameters (Angstroms/Degrees):

  a =      10.7398    alpha =  23.3006
  b =      10.7398    beta  =  23.3006
  c =      10.7398    gamma =  23.3006

  Initial cell volume =         170.167643 Angs**3

  Temperature of configuration =  0.000     K 

  Pressure of configuration =         0.000 GPa 

  Fractional coordinates of asymmetric unit :

--------------------------------------------------------------------------------
   No.  Atomic       x           y          z         Charge      Occupancy
        Label      (Frac)      (Frac)     (Frac)        (e)         (Frac)  
--------------------------------------------------------------------------------
      1 Sb    c    0.396797    0.396797    0.396797      0.0000    1.000000    
      2 Sb    c    0.603203    0.603203    0.603203      0.0000    1.000000    
      3 Te1   c    0.930000    0.930000    0.930000      0.0000    1.000000    
      4 Te2   c    0.784571    0.784571    0.784571      0.0000    1.000000    
      5 Te2   c    0.215429    0.215429    0.215429      0.0000    1.000000    
--------------------------------------------------------------------------------



********************************************************************************
*  Input for Configuration =  32                                               *
********************************************************************************

  Formula = Sb2Te3                                                      

  Number of irreducible atoms/shells =       5


  Total number atoms/shells =       5

  Dimensionality = 3               :  Bulk   



  Cartesian lattice vectors (Angstroms) :

       -2.504286    0.000000   10.443767
        1.252143   -2.168775   10.443767
        1.252143    2.168775   10.443767

  Cell parameters (Angstroms/Degrees):

  a =      10.7398    alpha =  23.3006
  b =      10.7398    beta  =  23.3006
  c =      10.7398    gamma =  23.3006

  Initial cell volume =         170.167643 Angs**3

  Temperature of configuration =  0.000     K 

  Pressure of configuration =         0.000 GPa 

  Fractional coordinates of asymmetric unit :

--------------------------------------------------------------------------------
   No.  Atomic       x           y          z         Charge      Occupancy
        Label      (Frac)      (Frac)     (Frac)        (e)         (Frac)  
--------------------------------------------------------------------------------
      1 Sb    c    0.396797    0.396797    0.396797      0.0000    1.000000    
      2 Sb    c    0.603203    0.603203    0.603203      0.0000    1.000000    
      3 Te1   c    0.940000    0.940000    0.940000      0.0000    1.000000    
      4 Te2   c    0.784571    0.784571    0.784571      0.0000    1.000000    
      5 Te2   c    0.215429    0.215429    0.215429      0.0000    1.000000    
--------------------------------------------------------------------------------



********************************************************************************
*  Input for Configuration =  33                                               *
********************************************************************************

  Formula = Sb2Te3                                                      

  Number of irreducible atoms/shells =       5


  Total number atoms/shells =       5

  Dimensionality = 3               :  Bulk   



  Cartesian lattice vectors (Angstroms) :

       -2.504286    0.000000   10.443767
        1.252143   -2.168775   10.443767
        1.252143    2.168775   10.443767

  Cell parameters (Angstroms/Degrees):

  a =      10.7398    alpha =  23.3006
  b =      10.7398    beta  =  23.3006
  c =      10.7398    gamma =  23.3006

  Initial cell volume =         170.167643 Angs**3

  Temperature of configuration =  0.000     K 

  Pressure of configuration =         0.000 GPa 

  Fractional coordinates of asymmetric unit :

--------------------------------------------------------------------------------
   No.  Atomic       x           y          z         Charge      Occupancy
        Label      (Frac)      (Frac)     (Frac)        (e)         (Frac)  
--------------------------------------------------------------------------------
      1 Sb    c    0.396797    0.396797    0.396797      0.0000    1.000000    
      2 Sb    c    0.603203    0.603203    0.603203      0.0000    1.000000    
      3 Te1   c    0.950000    0.950000    0.950000      0.0000    1.000000    
      4 Te2   c    0.784571    0.784571    0.784571      0.0000    1.000000    
      5 Te2   c    0.215429    0.215429    0.215429      0.0000    1.000000    
--------------------------------------------------------------------------------



********************************************************************************
*  Input for Configuration =  34                                               *
********************************************************************************

  Formula = Sb2Te3                                                      

  Number of irreducible atoms/shells =       5


  Total number atoms/shells =       5

  Dimensionality = 3               :  Bulk   



  Cartesian lattice vectors (Angstroms) :

       -2.504286    0.000000   10.443767
        1.252143   -2.168775   10.443767
        1.252143    2.168775   10.443767

  Cell parameters (Angstroms/Degrees):

  a =      10.7398    alpha =  23.3006
  b =      10.7398    beta  =  23.3006
  c =      10.7398    gamma =  23.3006

  Initial cell volume =         170.167643 Angs**3

  Temperature of configuration =  0.000     K 

  Pressure of configuration =         0.000 GPa 

  Fractional coordinates of asymmetric unit :

--------------------------------------------------------------------------------
   No.  Atomic       x           y          z         Charge      Occupancy
        Label      (Frac)      (Frac)     (Frac)        (e)         (Frac)  
--------------------------------------------------------------------------------
      1 Sb    c    0.396797    0.396797    0.396797      0.0000    1.000000    
      2 Sb    c    0.603203    0.603203    0.603203      0.0000    1.000000    
      3 Te1   c    0.960000    0.960000    0.960000      0.0000    1.000000    
      4 Te2   c    0.784571    0.784571    0.784571      0.0000    1.000000    
      5 Te2   c    0.215429    0.215429    0.215429      0.0000    1.000000    
--------------------------------------------------------------------------------



********************************************************************************
*  Input for Configuration =  35                                               *
********************************************************************************

  Formula = Sb2Te3                                                      

  Number of irreducible atoms/shells =       5


  Total number atoms/shells =       5

  Dimensionality = 3               :  Bulk   



  Cartesian lattice vectors (Angstroms) :

       -2.504286    0.000000   10.443767
        1.252143   -2.168775   10.443767
        1.252143    2.168775   10.443767

  Cell parameters (Angstroms/Degrees):

  a =      10.7398    alpha =  23.3006
  b =      10.7398    beta  =  23.3006
  c =      10.7398    gamma =  23.3006

  Initial cell volume =         170.167643 Angs**3

  Temperature of configuration =  0.000     K 

  Pressure of configuration =         0.000 GPa 

  Fractional coordinates of asymmetric unit :

--------------------------------------------------------------------------------
   No.  Atomic       x           y          z         Charge      Occupancy
        Label      (Frac)      (Frac)     (Frac)        (e)         (Frac)  
--------------------------------------------------------------------------------
      1 Sb    c    0.396797    0.396797    0.396797      0.0000    1.000000    
      2 Sb    c    0.603203    0.603203    0.603203      0.0000    1.000000    
      3 Te1   c    0.970000    0.970000    0.970000      0.0000    1.000000    
      4 Te2   c    0.784571    0.784571    0.784571      0.0000    1.000000    
      5 Te2   c    0.215429    0.215429    0.215429      0.0000    1.000000    
--------------------------------------------------------------------------------



********************************************************************************
*  Input for Configuration =  36                                               *
********************************************************************************

  Formula = Sb2Te3                                                      

  Number of irreducible atoms/shells =       5


  Total number atoms/shells =       5

  Dimensionality = 3               :  Bulk   



  Cartesian lattice vectors (Angstroms) :

       -2.504286    0.000000   10.443767
        1.252143   -2.168775   10.443767
        1.252143    2.168775   10.443767

  Cell parameters (Angstroms/Degrees):

  a =      10.7398    alpha =  23.3006
  b =      10.7398    beta  =  23.3006
  c =      10.7398    gamma =  23.3006

  Initial cell volume =         170.167643 Angs**3

  Temperature of configuration =  0.000     K 

  Pressure of configuration =         0.000 GPa 

  Fractional coordinates of asymmetric unit :

--------------------------------------------------------------------------------
   No.  Atomic       x           y          z         Charge      Occupancy
        Label      (Frac)      (Frac)     (Frac)        (e)         (Frac)  
--------------------------------------------------------------------------------
      1 Sb    c    0.396797    0.396797    0.396797      0.0000    1.000000    
      2 Sb    c    0.603203    0.603203    0.603203      0.0000    1.000000    
      3 Te1   c    0.980000    0.980000    0.980000      0.0000    1.000000    
      4 Te2   c    0.784571    0.784571    0.784571      0.0000    1.000000    
      5 Te2   c    0.215429    0.215429    0.215429      0.0000    1.000000    
--------------------------------------------------------------------------------



********************************************************************************
*  Input for Configuration =  37                                               *
********************************************************************************

  Formula = Sb2Te3                                                      

  Number of irreducible atoms/shells =       5


  Total number atoms/shells =       5

  Dimensionality = 3               :  Bulk   



  Cartesian lattice vectors (Angstroms) :

       -2.504286    0.000000   10.443767
        1.252143   -2.168775   10.443767
        1.252143    2.168775   10.443767

  Cell parameters (Angstroms/Degrees):

  a =      10.7398    alpha =  23.3006
  b =      10.7398    beta  =  23.3006
  c =      10.7398    gamma =  23.3006

  Initial cell volume =         170.167643 Angs**3

  Temperature of configuration =  0.000     K 

  Pressure of configuration =         0.000 GPa 

  Fractional coordinates of asymmetric unit :

--------------------------------------------------------------------------------
   No.  Atomic       x           y          z         Charge      Occupancy
        Label      (Frac)      (Frac)     (Frac)        (e)         (Frac)  
--------------------------------------------------------------------------------
      1 Sb    c    0.396797    0.396797    0.396797      0.0000    1.000000    
      2 Sb    c    0.603203    0.603203    0.603203      0.0000    1.000000    
      3 Te1   c    0.990000    0.990000    0.990000      0.0000    1.000000    
      4 Te2   c    0.784571    0.784571    0.784571      0.0000    1.000000    
      5 Te2   c    0.215429    0.215429    0.215429      0.0000    1.000000    
--------------------------------------------------------------------------------



********************************************************************************
*  Input for Configuration =  38                                               *
********************************************************************************

  Formula = Sb2Te3                                                      

  Number of irreducible atoms/shells =       5


  Total number atoms/shells =       5

  Dimensionality = 3               :  Bulk   



  Cartesian lattice vectors (Angstroms) :

       -2.504286    0.000000   10.443767
        1.252143   -2.168775   10.443767
        1.252143    2.168775   10.443767

  Cell parameters (Angstroms/Degrees):

  a =      10.7398    alpha =  23.3006
  b =      10.7398    beta  =  23.3006
  c =      10.7398    gamma =  23.3006

  Initial cell volume =         170.167643 Angs**3

  Temperature of configuration =  0.000     K 

  Pressure of configuration =         0.000 GPa 

  Fractional coordinates of asymmetric unit :

--------------------------------------------------------------------------------
   No.  Atomic       x           y          z         Charge      Occupancy
        Label      (Frac)      (Frac)     (Frac)        (e)         (Frac)  
--------------------------------------------------------------------------------
      1 Sb    c    0.396797    0.396797    0.396797      0.0000    1.000000    
      2 Sb    c    0.603203    0.603203    0.603203      0.0000    1.000000    
      3 Te1   c    0.000000    0.000000    0.000000      0.0000    1.000000    
      4 Te2   c    0.784571    0.784571    0.784571      0.0000    1.000000    
      5 Te2   c    0.215429    0.215429    0.215429      0.0000    1.000000    
--------------------------------------------------------------------------------



********************************************************************************
*  Input for Configuration =  39                                               *
********************************************************************************

  Formula = Sb2Te3                                                      

  Number of irreducible atoms/shells =       5


  Total number atoms/shells =       5

  Dimensionality = 3               :  Bulk   



  Cartesian lattice vectors (Angstroms) :

       -2.504286    0.000000   10.443767
        1.252143   -2.168775   10.443767
        1.252143    2.168775   10.443767

  Cell parameters (Angstroms/Degrees):

  a =      10.7398    alpha =  23.3006
  b =      10.7398    beta  =  23.3006
  c =      10.7398    gamma =  23.3006

  Initial cell volume =         170.167643 Angs**3

  Temperature of configuration =  0.000     K 

  Pressure of configuration =         0.000 GPa 

  Fractional coordinates of asymmetric unit :

--------------------------------------------------------------------------------
   No.  Atomic       x           y          z         Charge      Occupancy
        Label      (Frac)      (Frac)     (Frac)        (e)         (Frac)  
--------------------------------------------------------------------------------
      1 Sb    c    0.396797    0.396797    0.396797      0.0000    1.000000    
      2 Sb    c    0.603203    0.603203    0.603203      0.0000    1.000000    
      3 Te1   c    0.010000    0.010000    0.010000      0.0000    1.000000    
      4 Te2   c    0.784571    0.784571    0.784571      0.0000    1.000000    
      5 Te2   c    0.215429    0.215429    0.215429      0.0000    1.000000    
--------------------------------------------------------------------------------



********************************************************************************
*  Input for Configuration =  40                                               *
********************************************************************************

  Formula = Sb2Te3                                                      

  Number of irreducible atoms/shells =       5


  Total number atoms/shells =       5

  Dimensionality = 3               :  Bulk   



  Cartesian lattice vectors (Angstroms) :

       -2.504286    0.000000   10.443767
        1.252143   -2.168775   10.443767
        1.252143    2.168775   10.443767

  Cell parameters (Angstroms/Degrees):

  a =      10.7398    alpha =  23.3006
  b =      10.7398    beta  =  23.3006
  c =      10.7398    gamma =  23.3006

  Initial cell volume =         170.167643 Angs**3

  Temperature of configuration =  0.000     K 

  Pressure of configuration =         0.000 GPa 

  Fractional coordinates of asymmetric unit :

--------------------------------------------------------------------------------
   No.  Atomic       x           y          z         Charge      Occupancy
        Label      (Frac)      (Frac)     (Frac)        (e)         (Frac)  
--------------------------------------------------------------------------------
      1 Sb    c    0.396797    0.396797    0.396797      0.0000    1.000000    
      2 Sb    c    0.603203    0.603203    0.603203      0.0000    1.000000    
      3 Te1   c    0.020000    0.020000    0.020000      0.0000    1.000000    
      4 Te2   c    0.784571    0.784571    0.784571      0.0000    1.000000    
      5 Te2   c    0.215429    0.215429    0.215429      0.0000    1.000000    
--------------------------------------------------------------------------------



********************************************************************************
*  Input for Configuration =  41                                               *
********************************************************************************

  Formula = Sb2Te3                                                      

  Number of irreducible atoms/shells =       5


  Total number atoms/shells =       5

  Dimensionality = 3               :  Bulk   



  Cartesian lattice vectors (Angstroms) :

       -2.504286    0.000000   10.443767
        1.252143   -2.168775   10.443767
        1.252143    2.168775   10.443767

  Cell parameters (Angstroms/Degrees):

  a =      10.7398    alpha =  23.3006
  b =      10.7398    beta  =  23.3006
  c =      10.7398    gamma =  23.3006

  Initial cell volume =         170.167643 Angs**3

  Temperature of configuration =  0.000     K 

  Pressure of configuration =         0.000 GPa 

  Fractional coordinates of asymmetric unit :

--------------------------------------------------------------------------------
   No.  Atomic       x           y          z         Charge      Occupancy
        Label      (Frac)      (Frac)     (Frac)        (e)         (Frac)  
--------------------------------------------------------------------------------
      1 Sb    c    0.396797    0.396797    0.396797      0.0000    1.000000    
      2 Sb    c    0.603203    0.603203    0.603203      0.0000    1.000000    
      3 Te1   c    0.030000    0.030000    0.030000      0.0000    1.000000    
      4 Te2   c    0.784571    0.784571    0.784571      0.0000    1.000000    
      5 Te2   c    0.215429    0.215429    0.215429      0.0000    1.000000    
--------------------------------------------------------------------------------



********************************************************************************
*  Input for Configuration =  42                                               *
********************************************************************************

  Formula = Sb2Te3                                                      

  Number of irreducible atoms/shells =       5


  Total number atoms/shells =       5

  Dimensionality = 3               :  Bulk   



  Cartesian lattice vectors (Angstroms) :

       -2.504286    0.000000   10.443767
        1.252143   -2.168775   10.443767
        1.252143    2.168775   10.443767

  Cell parameters (Angstroms/Degrees):

  a =      10.7398    alpha =  23.3006
  b =      10.7398    beta  =  23.3006
  c =      10.7398    gamma =  23.3006

  Initial cell volume =         170.167643 Angs**3

  Temperature of configuration =  0.000     K 

  Pressure of configuration =         0.000 GPa 

  Fractional coordinates of asymmetric unit :

--------------------------------------------------------------------------------
   No.  Atomic       x           y          z         Charge      Occupancy
        Label      (Frac)      (Frac)     (Frac)        (e)         (Frac)  
--------------------------------------------------------------------------------
      1 Sb    c    0.396797    0.396797    0.396797      0.0000    1.000000    
      2 Sb    c    0.603203    0.603203    0.603203      0.0000    1.000000    
      3 Te1   c    0.040000    0.040000    0.040000      0.0000    1.000000    
      4 Te2   c    0.784571    0.784571    0.784571      0.0000    1.000000    
      5 Te2   c    0.215429    0.215429    0.215429      0.0000    1.000000    
--------------------------------------------------------------------------------



********************************************************************************
*  Input for Configuration =  43                                               *
********************************************************************************

  Formula = Sb2Te3                                                      

  Number of irreducible atoms/shells =       5


  Total number atoms/shells =       5

  Dimensionality = 3               :  Bulk   



  Cartesian lattice vectors (Angstroms) :

       -2.504286    0.000000   10.443767
        1.252143   -2.168775   10.443767
        1.252143    2.168775   10.443767

  Cell parameters (Angstroms/Degrees):

  a =      10.7398    alpha =  23.3006
  b =      10.7398    beta  =  23.3006
  c =      10.7398    gamma =  23.3006

  Initial cell volume =         170.167643 Angs**3

  Temperature of configuration =  0.000     K 

  Pressure of configuration =         0.000 GPa 

  Fractional coordinates of asymmetric unit :

--------------------------------------------------------------------------------
   No.  Atomic       x           y          z         Charge      Occupancy
        Label      (Frac)      (Frac)     (Frac)        (e)         (Frac)  
--------------------------------------------------------------------------------
      1 Sb    c    0.396797    0.396797    0.396797      0.0000    1.000000    
      2 Sb    c    0.603203    0.603203    0.603203      0.0000    1.000000    
      3 Te1   c    0.050000    0.050000    0.050000      0.0000    1.000000    
      4 Te2   c    0.784571    0.784571    0.784571      0.0000    1.000000    
      5 Te2   c    0.215429    0.215429    0.215429      0.0000    1.000000    
--------------------------------------------------------------------------------



********************************************************************************
*  Input for Configuration =  44                                               *
********************************************************************************

  Formula = Sb2Te3                                                      

  Number of irreducible atoms/shells =       5


  Total number atoms/shells =       5

  Dimensionality = 3               :  Bulk   



  Cartesian lattice vectors (Angstroms) :

       -2.504286    0.000000   10.443767
        1.252143   -2.168775   10.443767
        1.252143    2.168775   10.443767

  Cell parameters (Angstroms/Degrees):

  a =      10.7398    alpha =  23.3006
  b =      10.7398    beta  =  23.3006
  c =      10.7398    gamma =  23.3006

  Initial cell volume =         170.167643 Angs**3

  Temperature of configuration =  0.000     K 

  Pressure of configuration =         0.000 GPa 

  Fractional coordinates of asymmetric unit :

--------------------------------------------------------------------------------
   No.  Atomic       x           y          z         Charge      Occupancy
        Label      (Frac)      (Frac)     (Frac)        (e)         (Frac)  
--------------------------------------------------------------------------------
      1 Sb    c    0.396797    0.396797    0.396797      0.0000    1.000000    
      2 Sb    c    0.603203    0.603203    0.603203      0.0000    1.000000    
      3 Te1   c    0.060000    0.060000    0.060000      0.0000    1.000000    
      4 Te2   c    0.784571    0.784571    0.784571      0.0000    1.000000    
      5 Te2   c    0.215429    0.215429    0.215429      0.0000    1.000000    
--------------------------------------------------------------------------------



********************************************************************************
*  Input for Configuration =  45                                               *
********************************************************************************

  Formula = Sb2Te3                                                      

  Number of irreducible atoms/shells =       5


  Total number atoms/shells =       5

  Dimensionality = 3               :  Bulk   



  Cartesian lattice vectors (Angstroms) :

       -2.504286    0.000000   10.443767
        1.252143   -2.168775   10.443767
        1.252143    2.168775   10.443767

[...]
     1  Sb    c     0.396797    0.396797    0.396797    0.000000
     2  Sb    c     0.595310    0.595310    0.595310    0.000000
     3  Te1   c     0.996053    0.996053    0.996053    0.000000
     4  Te2   c     0.785963    0.785963    0.785963    0.000000
     5  Te2   c     0.206143    0.206143    0.206143    0.000000
--------------------------------------------------------------------------------

  Final Cartesian lattice vectors (Angstroms) :

        9.686520   -0.253878   -0.150731
        8.796129    4.064632   -0.150731
        8.796129    1.813587    3.640722


  Final cell parameters and derivatives :

--------------------------------------------------------------------------------
       a            9.691019 Angstrom     dE/de1(xx)    -0.000647 eV/strain
       b            9.691019 Angstrom     dE/de2(yy)     0.000871 eV/strain
       c            9.691019 Angstrom     dE/de3(zz)     0.000914 eV/strain
       alpha       26.299446 Degrees      dE/de4(yz)    -0.000040 eV/strain
       beta        26.299446 Degrees      dE/de5(xz)    -0.000194 eV/strain
       gamma       26.299446 Degrees      dE/de6(xy)    -0.000327 eV/strain
--------------------------------------------------------------------------------

  Primitive cell volume =           157.442364 Angs**3

  Density of cell =      6.605669 g/cm**3

  Non-primitive cell volume =           157.442364 Angs**3


  Final internal derivatives :

--------------------------------------------------------------------------------
   No.  Atomic          x             y             z           Radius
        Label          (eV)          (eV)          (eV)        (eV/Angs)
--------------------------------------------------------------------------------
      1 Sb    c       0.000000      0.000000      0.000000      0.000000
      2 Sb    c      -0.000206     -0.000206     -0.000206      0.000000
      3 Te1   c      -0.000000     -0.000000     -0.000000      0.000000
      4 Te2   c      -0.001416     -0.001416     -0.001416      0.000000
      5 Te2   c       0.001416      0.001416      0.001416      0.000000
--------------------------------------------------------------------------------
  Maximum abs         0.001416      0.001416      0.001416      0.000000
--------------------------------------------------------------------------------



  Elastic Constant Matrix: (Units=GPa)

-------------------------------------------------------------------------------
  Indices      1         2         3         4         5         6    
-------------------------------------------------------------------------------
       1     37.5634   27.4787   33.3905   -5.4207   -3.0249   -5.0948
       2     27.4787   72.5291   32.7560    6.9395   10.3911   -2.4345
       3     33.3905   32.7560   67.6042   -2.4237  -11.7554    0.1366
       4     -5.4207    6.9395   -2.4237   24.6879   -0.5146   10.0045
       5     -3.0249   10.3911  -11.7554   -0.5146   22.2982   -5.5004
       6     -5.0948   -2.4345    0.1366   10.0045   -5.5004   16.2995
-------------------------------------------------------------------------------


  Elastic Compliance Matrix: (Units=1/GPa)

-------------------------------------------------------------------------------
  Indices      1         2         3         4         5         6    
-------------------------------------------------------------------------------
       1    0.059687 -0.014974 -0.020553  0.010230  0.007657  0.012898
       2   -0.014974  0.028490 -0.010531 -0.012986 -0.021027  0.000538
       3   -0.020553 -0.010531  0.033460  0.003873  0.018784 -0.004316
       4    0.010230 -0.012986  0.003873  0.061287  0.002093 -0.035686
       5    0.007657 -0.021027  0.018784  0.002093  0.071006  0.021773
       6    0.012898  0.000538 -0.004316 -0.035686  0.021773  0.094751
-------------------------------------------------------------------------------

 Mechanical properties :

-------------------------------------------------------------------------------
  Convention :                    Reuss         Voigt         Hill
-------------------------------------------------------------------------------
  Bulk  Modulus (GPa)     =      33.87427      40.54968      37.21198
  Shear Modulus (GPa)     =      11.09540      18.26190      14.67865
-------------------------------------------------------------------------------
  Velocity S-wave (km/s)  =       4.09839       5.25793       4.71395
  Velocity P-wave (km/s)  =       8.58349       9.91197       9.27156
-------------------------------------------------------------------------------
  Compressibility (1/GPa) =    0.02952093
-------------------------------------------------------------------------------
  Stress axis :                     x             y             z
-------------------------------------------------------------------------------
  Youngs Moduli (GPa)     =      16.75395      35.10007      29.88685
-------------------------------------------------------------------------------
  Poissons Ratio (x)      =                     0.52560       0.61425
  Poissons Ratio (y)      =       0.25088                     0.31474
  Poissons Ratio (z)      =       0.34434       0.36964
-------------------------------------------------------------------------------


  Piezoelectric Strain Matrix: (Units=C/m**2)

-------------------------------------------------------------------------------
  Indices      1         2         3         4         5         6    
-------------------------------------------------------------------------------
       x    -0.00000  -0.00000  -0.00000  -0.00000  -0.00000  -0.00000
       y    -0.00000  -0.00000  -0.00000  -0.00000  -0.00000  -0.00000
       z    -0.00000  -0.00000  -0.00000  -0.00000  -0.00000  -0.00000
-------------------------------------------------------------------------------


  Piezoelectric Stress Matrix: (Units=10**-11 C/N)

-------------------------------------------------------------------------------
  Indices      1         2         3         4         5         6    
-------------------------------------------------------------------------------
       x     0.00000   0.00000   0.00000   0.00000   0.00000   0.00000
       y     0.00000   0.00000   0.00000   0.00000   0.00000   0.00000
       z     0.00000   0.00000   0.00000   0.00000   0.00000   0.00000
-------------------------------------------------------------------------------


  Static dielectric constant tensor : 

-------------------------------------------------------------------------------
              x         y         z
-------------------------------------------------------------------------------
       x     1.00000   0.00000   0.00000
       y     0.00000   1.00000   0.00000
       z     0.00000   0.00000   1.00000
--------------------------------------------------------------------------------

  Static refractive indices : 

-------------------------------------------------------------------------------
    1 =    1.00000      2 =    1.00000      3 =    1.00000
-------------------------------------------------------------------------------


  Time to end of optimisation =    1847.6115 seconds


********************************************************************************
*  Output for configuration 219                                                *
********************************************************************************


  Components of energy : 

--------------------------------------------------------------------------------
  Interatomic potentials     =         -16.77941986 eV
  Monopole - monopole (real) =           0.00000000 eV
  Monopole - monopole (recip)=           0.00000000 eV
  Monopole - monopole (total)=           0.00000000 eV
  Energy shift               =         -12.72459914 eV
--------------------------------------------------------------------------------
  Total lattice energy       =         -29.50401900 eV
--------------------------------------------------------------------------------
  Total lattice energy       =           -2846.6868 kJ/(mole unit cells)
--------------------------------------------------------------------------------


  Number of variables =     48

  Maximum number of calculations  =          1000
  Maximum Hessian update interval =            10
  Maximum step size               =   1.000000000
  Maximum parameter tolerance     =   0.000010000
  Maximum function  tolerance     =   0.000010000
  Maximum gradient  tolerance     =   0.001000000
  Maximum gradient  component     =   0.010000000

  Symmetry not applied to optimisation

  Cell parameters to be optimised using strains

  Newton-Raphson optimiser to be used

  BFGS hessian update to be used

  Dumpfile to be written after every cycle

  Start of bulk optimisation :

  Cycle:      0 Energy:       -29.504019  Gnorm:      0.159290  CPU: 1847.663
  ** Hessian calculated **
  Cycle:      1 Energy:       -29.855635  Gnorm:      0.192713  CPU: 1847.675
  Cycle:      2 Energy:       -29.886888  Gnorm:      0.068229  CPU: 1847.731
  Cycle:      3 Energy:       -29.891960  Gnorm:      0.012280  CPU: 1847.783
  Cycle:      4 Energy:       -29.892045  Gnorm:      0.001822  CPU: 1847.839


  **** Optimisation achieved ****


  Final energy =     -29.89204827 eV
  Final Gnorm  =       0.00018917

  Components of energy : 

--------------------------------------------------------------------------------
  Interatomic potentials     =         -17.16744913 eV
  Monopole - monopole (real) =           0.00000000 eV
  Monopole - monopole (recip)=           0.00000000 eV
  Monopole - monopole (total)=           0.00000000 eV
  Energy shift               =         -12.72459914 eV
--------------------------------------------------------------------------------
  Total lattice energy       =         -29.89204827 eV
--------------------------------------------------------------------------------
  Total lattice energy       =           -2884.1257 kJ/(mole unit cells)
--------------------------------------------------------------------------------

  Final fractional coordinates of atoms :

--------------------------------------------------------------------------------
   No.  Atomic        x           y          z          Radius
        Label       (Frac)      (Frac)     (Frac)       (Angs) 
--------------------------------------------------------------------------------
     1  Sb    c     0.666667    0.333333    0.063305    0.000000
     2  Sb    c     0.666667    0.333333    0.261818    0.000000
     3  Sb    c     0.000000    1.000000    0.396639    0.000000
     4  Sb    c     0.000000    1.000000    0.595152    0.000000
     5  Sb    c     0.333333    0.666667    0.729972    0.000000
     6  Sb    c     0.333333    0.666667    0.928485    0.000000
     7  Te1   c     0.000000    1.000000    0.995895    0.000000
     8  Te2   c     0.333333    0.666667    0.119138    0.000000
     9  Te2   c     0.000000    1.000000    0.205985    0.000000
    10  Te1   c     0.333333    0.666667    0.329228    0.000000
    11  Te2   c     0.666667    0.333333    0.452472    0.000000
    12  Te2   c     0.333333    0.666667    0.539318    0.000000
    13  Te1   c     0.666667    0.333333    0.662562    0.000000
    14  Te2   c     1.000000    0.000000    0.785805    0.000000
    15  Te2   c     0.666667    0.333333    0.872652    0.000000
--------------------------------------------------------------------------------

  Final Cartesian lattice vectors (Angstroms) :

        4.409331   -0.000000    0.000000
       -2.204665    3.818592   -0.000000
        0.000000   -0.000000   28.052692


  Final cell parameters and derivatives :

--------------------------------------------------------------------------------
       a            4.409331 Angstrom     dE/de1(xx)     0.004593 eV/strain
       b            4.409331 Angstrom     dE/de2(yy)     0.004593 eV/strain
       c           28.052692 Angstrom     dE/de3(zz)     0.000542 eV/strain
       alpha       90.000000 Degrees      dE/de4(yz)    -0.000000 eV/strain
       beta        90.000000 Degrees      dE/de5(xz)     0.000000 eV/strain
       gamma      120.000000 Degrees      dE/de6(xy)     0.000000 eV/strain
--------------------------------------------------------------------------------

  Primitive cell volume =           472.335425 Angs**3

  Density of cell =      6.605553 g/cm**3

  Non-primitive cell volume =           472.335425 Angs**3


  Final internal derivatives :

--------------------------------------------------------------------------------
   No.  Atomic          x             y             z           Radius
        Label          (eV)          (eV)          (eV)        (eV/Angs)
--------------------------------------------------------------------------------
      1 Sb    c       0.000000      0.000000      0.000000      0.000000
      2 Sb    c      -0.000000      0.000000     -0.001741      0.000000
      3 Sb    c       0.000000     -0.000000      0.001741      0.000000
      4 Sb    c      -0.000000      0.000000     -0.001741      0.000000
      5 Sb    c       0.000000     -0.000000      0.001741      0.000000
      6 Sb    c      -0.000000      0.000000     -0.001741      0.000000
      7 Te1   c      -0.000000      0.000000     -0.000000      0.000000
      8 Te2   c      -0.000000      0.000000     -0.002034      0.000000
      9 Te2   c       0.000000     -0.000000      0.002034      0.000000
     10 Te1   c      -0.000000      0.000000      0.000000      0.000000
     11 Te2   c      -0.000000      0.000000     -0.002034      0.000000
     12 Te2   c       0.000000     -0.000000      0.002034      0.000000
     13 Te1   c       0.000000      0.000000     -0.000000      0.000000
     14 Te2   c      -0.000000      0.000000     -0.002034      0.000000
     15 Te2   c       0.000000     -0.000000      0.002034      0.000000
--------------------------------------------------------------------------------
  Maximum abs         0.000000      0.000000      0.002034      0.000000
--------------------------------------------------------------------------------



  Elastic Constant Matrix: (Units=GPa)

-------------------------------------------------------------------------------
  Indices      1         2         3         4         5         6    
-------------------------------------------------------------------------------
       1     73.5067   29.7583   31.0149   12.4762   -0.0000   -0.0000
       2     29.7583   73.5067   31.0149  -12.4761   -0.0000   -0.0000
       3     31.0149   31.0149   34.3313    0.0000   -0.0000   -0.0000
       4     12.4762  -12.4761    0.0000   19.7901   -0.0000   -0.0000
       5     -0.0000   -0.0000   -0.0000   -0.0000   19.7901   12.4762
       6     -0.0000   -0.0000   -0.0000   -0.0000   12.4762   21.8742
-------------------------------------------------------------------------------


  Elastic Compliance Matrix: (Units=1/GPa)

-------------------------------------------------------------------------------
  Indices      1         2         3         4         5         6    
-------------------------------------------------------------------------------
       1    0.028433 -0.007259 -0.019129 -0.022501 -0.000000  0.000000
       2   -0.007259  0.028433 -0.019129  0.022501  0.000000 -0.000000
       3   -0.019129 -0.019129  0.063690 -0.000000  0.000000  0.000000
       4   -0.022501  0.022501 -0.000000  0.078900  0.000000 -0.000000
       5   -0.000000  0.000000  0.000000  0.000000  0.078900 -0.045002
       6    0.000000 -0.000000  0.000000 -0.000000 -0.045002  0.071383
-------------------------------------------------------------------------------

 Mechanical properties :

-------------------------------------------------------------------------------
  Convention :                    Reuss         Voigt         Hill
-------------------------------------------------------------------------------
  Bulk  Modulus (GPa)     =      33.87178      40.54679      37.20928
  Shear Modulus (GPa)     =      11.09597      18.26129      14.67863
-------------------------------------------------------------------------------
  Velocity S-wave (km/s)  =       4.09853       5.25789       4.71399
  Velocity P-wave (km/s)  =       8.58341       9.91178       9.27142
-------------------------------------------------------------------------------
  Compressibility (1/GPa) =    0.02952310
-------------------------------------------------------------------------------
  Stress axis :                     x             y             z
-------------------------------------------------------------------------------
  Youngs Moduli (GPa)     =      35.17047      35.17047      15.70105
-------------------------------------------------------------------------------
  Poissons Ratio (x)      =                     0.25529       0.30034
  Poissons Ratio (y)      =       0.25529                     0.30034
  Poissons Ratio (z)      =       0.67277       0.67277
-------------------------------------------------------------------------------


  Piezoelectric Strain Matrix: (Units=C/m**2)

-------------------------------------------------------------------------------
  Indices      1         2         3         4         5         6    
-------------------------------------------------------------------------------
       x    -0.00000  -0.00000  -0.00000  -0.00000  -0.00000  -0.00000
       y    -0.00000  -0.00000  -0.00000  -0.00000  -0.00000  -0.00000
       z    -0.00000  -0.00000  -0.00000  -0.00000  -0.00000  -0.00000
-------------------------------------------------------------------------------


  Piezoelectric Stress Matrix: (Units=10**-11 C/N)

-------------------------------------------------------------------------------
  Indices      1         2         3         4         5         6    
-------------------------------------------------------------------------------
       x     0.00000   0.00000   0.00000   0.00000   0.00000   0.00000
       y     0.00000   0.00000   0.00000   0.00000   0.00000   0.00000
       z     0.00000   0.00000   0.00000   0.00000   0.00000   0.00000
-------------------------------------------------------------------------------


  Static dielectric constant tensor : 

-------------------------------------------------------------------------------
              x         y         z
-------------------------------------------------------------------------------
       x     1.00000   0.00000   0.00000
       y     0.00000   1.00000   0.00000
       z     0.00000   0.00000   1.00000
--------------------------------------------------------------------------------

  Static refractive indices : 

-------------------------------------------------------------------------------
    1 =    1.00000      2 =    1.00000      3 =    1.00000
-------------------------------------------------------------------------------


  Time to end of optimisation =    1847.9075 seconds


  Peak dynamic memory used =       2.77 MB 


  Timing analysis for GULP :

--------------------------------------------------------------------------------
  Task / Subroutine                                          Time (Seconds)
--------------------------------------------------------------------------------
  Calculation of real space energy and derivatives             1778.7192
  Sum of squares for fitting                                     46.3748
  Global summation overhead                                       1.1681
--------------------------------------------------------------------------------
  Total CPU time                                               1847.9075
--------------------------------------------------------------------------------


  Dump file written as sb2te3_10.res                                           



  **** GULP has completed with 217 warnings - beware! ****

  Job Finished at 14:00.28 22nd July       2010                               

