********************************************************************************
*                       GENERAL UTILITY LATTICE PROGRAM                        *
*                                 Julian Gale                                  *
*                      Nanochemistry Research Institute                        *
*             Curtin University of Technology, Western Australia               *
********************************************************************************
* Version = 3.4.7 * Last modified =  21st July 2009                            *
********************************************************************************
*  optimise     - perform optimisation run                                     *
*  phonon       - calculate phonons for final geometry                         *
*  simultaneous - relax shell positions and radii during fitting               *
********************************************************************************

  Job Started  at 14:26.43 21st July       2010                               

  Number of CPUs =     1


  Total number of configurations input =   1

********************************************************************************
*  Input for Configuration =   1                                               *
********************************************************************************

  Formula = Sb6Te9                                                      

  Number of irreducible atoms/shells =      15


  Total number atoms/shells =      15

  Dimensionality = 3               :  Bulk   



  Cartesian lattice vectors (Angstroms) :

        4.330000    0.000000    0.000000
       -2.165000    3.749890    0.000000
        0.000000    0.000000   31.432900

  Cell parameters (Angstroms/Degrees):

  a =       4.3300    alpha =  90.0000
  b =       4.3300    beta  =  90.0000
  c =      31.4329    gamma = 120.0000

  Initial cell volume =         510.376742 Angs**3

  Temperature of configuration =  0.000     K 

  Pressure of configuration =         0.000 GPa 

  Fractional coordinates of asymmetric unit :

--------------------------------------------------------------------------------
   No.  Atomic       x           y          z         Charge      Occupancy
        Label      (Frac)      (Frac)     (Frac)        (e)         (Frac)  
--------------------------------------------------------------------------------
      1 Sb    c    0.666667    0.333333    0.063305      0.0000    1.000000    
      2 Sb    c    0.666667 *  0.333333 *  0.270028 *    0.0000    1.000000    
      3 Sb    c    0.000000 *  0.000000 *  0.396639 *    0.0000    1.000000    
      4 Sb    c    0.000000 *  0.000000 *  0.603361 *    0.0000    1.000000    
      5 Sb    c    0.333333 *  0.666667 *  0.729972 *    0.0000    1.000000    
      6 Sb    c    0.333333 *  0.666667 *  0.936695 *    0.0000    1.000000    
      7 Te1   c    0.000000 *  0.000000 *  0.000000 *    0.0000    1.000000    
      8 Te2   c    0.333333 *  0.666667 *  0.117591 *    0.0000    1.000000    
      9 Te2   c    0.000000 *  0.000000 *  0.215743 *    0.0000    1.000000    
     10 Te1   c    0.333333 *  0.666667 *  0.333333 *    0.0000    1.000000    
     11 Te2   c    0.666667 *  0.333333 *  0.450924 *    0.0000    1.000000    
     12 Te2   c    0.333333 *  0.666667 *  0.549076 *    0.0000    1.000000    
     13 Te1   c    0.666667 *  0.333333 *  0.666667 *    0.0000    1.000000    
     14 Te2   c    0.000000 *  0.000000 *  0.784257 *    0.0000    1.000000    
     15 Te2   c    0.666667 *  0.333333 *  0.882409 *    0.0000    1.000000    
--------------------------------------------------------------------------------


  Brillouin zone sampling points :

--------------------------------------------------------------------------------
  Point number          x          y          z            Weight
--------------------------------------------------------------------------------
        1           0.000000   0.000000   0.000000         0.0333
        2           0.000000   0.000000   0.017241         0.0333
        3           0.000000   0.000000   0.034483         0.0333
        4           0.000000   0.000000   0.051724         0.0333
        5           0.000000   0.000000   0.068966         0.0333
        6           0.000000   0.000000   0.086207         0.0333
        7           0.000000   0.000000   0.103448         0.0333
        8           0.000000   0.000000   0.120690         0.0333
        9           0.000000   0.000000   0.137931         0.0333
       10           0.000000   0.000000   0.155172         0.0333
       11           0.000000   0.000000   0.172414         0.0333
       12           0.000000   0.000000   0.189655         0.0333
       13           0.000000   0.000000   0.206897         0.0333
       14           0.000000   0.000000   0.224138         0.0333
       15           0.000000   0.000000   0.241379         0.0333
       16           0.000000   0.000000   0.258621         0.0333
       17           0.000000   0.000000   0.275862         0.0333
       18           0.000000   0.000000   0.293103         0.0333
       19           0.000000   0.000000   0.310345         0.0333
       20           0.000000   0.000000   0.327586         0.0333
       21           0.000000   0.000000   0.344828         0.0333
       22           0.000000   0.000000   0.362069         0.0333
       23           0.000000   0.000000   0.379310         0.0333
       24           0.000000   0.000000   0.396552         0.0333
       25           0.000000   0.000000   0.413793         0.0333
       26           0.000000   0.000000   0.431034         0.0333
       27           0.000000   0.000000   0.448276         0.0333
       28           0.000000   0.000000   0.465517         0.0333
       29           0.000000   0.000000   0.482759         0.0333
       30           0.000000   0.000000   0.500000         0.0333
--------------------------------------------------------------------------------


********************************************************************************
*  General input information                                                   *
********************************************************************************

  Species output for all configurations : 

--------------------------------------------------------------------------------
  Species    Type    Atomic    Atomic    Charge       Radii (Angs)     Library
                     Number     Mass       (e)     Cova   Ionic  VDW   Symbol
--------------------------------------------------------------------------------
    Sb       Core       51     121.75     0.0000   1.460  0.000  2.170          
    Te1      Core       52     127.60     0.0000   1.470  0.000  2.200          
    Te2      Core       52     127.60     0.0000   1.470  0.000  2.200          
--------------------------------------------------------------------------------


  Lattice summation method               =    Ewald
  Accuracy factor for lattice sums       =    8.000


  Time limit = Infinity

  Maximum range for interatomic potentials =         8.000000 Angstroms

  Taper potentials to zero over   8.0000 Angstroms using Voter m =  20.0000

  General interatomic potentials :

--------------------------------------------------------------------------------
Atom  Types   Potential         A         B         C         D     Cutoffs(Ang)
  1     2                                                            Min    Max 
--------------------------------------------------------------------------------
Sb   c Te2  c Morse         0.761E-01  3.29     3.06     0.00       0.000 12.000
Sb   c Te1  c Morse         0.174      1.70     3.27     0.00       0.000 12.000
Sb   c Sb   c Morse         0.109      1.21     4.71     0.00       0.000 12.000
Te1  c Te1  c Morse         0.109      1.03     3.95     0.00       0.000 12.000
Te1  c Te2  c Morse         0.148     0.736     4.57     0.00       0.000 12.000
Te2  c Te2  c Morse         0.109      1.45     4.06     0.00       0.000 12.000
--------------------------------------------------------------------------------

  Energy shifts for configurations :

--------------------------------------------------------------------------------
      Configuration           Energy (eV)        Scale Factor
--------------------------------------------------------------------------------
             1               -14.6000                 1.000
--------------------------------------------------------------------------------


********************************************************************************
*  Output for configuration   1                                                *
********************************************************************************


  Components of energy : 

--------------------------------------------------------------------------------
  Interatomic potentials     =         -13.92299278 eV
  Monopole - monopole (real) =           0.00000000 eV
  Monopole - monopole (recip)=           0.00000000 eV
  Monopole - monopole (total)=           0.00000000 eV
  Energy shift               =         -14.60000000 eV
--------------------------------------------------------------------------------
  Total lattice energy       =         -28.52299278 eV
--------------------------------------------------------------------------------
  Total lattice energy       =           -2752.0328 kJ/(mole unit cells)
--------------------------------------------------------------------------------


  Number of variables =     48

  Maximum number of calculations  =          1000
  Maximum Hessian update interval =            10
  Maximum step size               =   1.000000000
  Maximum parameter tolerance     =   0.000010000
  Maximum function  tolerance     =   0.000010000
  Maximum gradient  tolerance     =   0.001000000
  Maximum gradient  component     =   0.010000000

  Symmetry not applied to optimisation

  Cell parameters to be optimised using strains

  Newton-Raphson optimiser to be used

  BFGS hessian update to be used

  Start of bulk optimisation :

  Cycle:      0 Energy:       -28.522993  Gnorm:      0.091680  CPU:    0.028
  ** Hessian calculated **
  Cycle:      1 Energy:       -28.609268  Gnorm:      0.036838  CPU:    0.044
  Cycle:      2 Energy:       -28.614077  Gnorm:      0.011058  CPU:    0.056
  Cycle:      3 Energy:       -28.614150  Gnorm:      0.001166  CPU:    0.068


  **** Optimisation achieved ****


  Final energy =     -28.61415178 eV
  Final Gnorm  =       0.00007753

  Components of energy : 

--------------------------------------------------------------------------------
  Interatomic potentials     =         -14.01415178 eV
  Monopole - monopole (real) =           0.00000000 eV
  Monopole - monopole (recip)=           0.00000000 eV
  Monopole - monopole (total)=           0.00000000 eV
  Energy shift               =         -14.60000000 eV
--------------------------------------------------------------------------------
  Total lattice energy       =         -28.61415178 eV
--------------------------------------------------------------------------------
  Total lattice energy       =           -2760.8282 kJ/(mole unit cells)
--------------------------------------------------------------------------------

  Final fractional coordinates of atoms :

--------------------------------------------------------------------------------
   No.  Atomic        x           y          z          Radius
        Label       (Frac)      (Frac)     (Frac)       (Angs) 
--------------------------------------------------------------------------------
     1  Sb    c     0.666667    0.333333    0.063305    0.000000
     2  Sb    c     0.666667    0.333333    0.267020    0.000000
     3  Sb    c     1.000000    0.000000    0.396639    0.000000
     4  Sb    c     0.000000    1.000000    0.600353    0.000000
     5  Sb    c     0.333333    0.666667    0.729972    0.000000
     6  Sb    c     0.333333    0.666667    0.933686    0.000000
     7  Te1   c     0.000000    1.000000    0.998496    0.000000
     8  Te2   c     0.333333    0.666667    0.116291    0.000000
     9  Te2   c     0.000000    1.000000    0.214034    0.000000
    10  Te1   c     0.333333    0.666667    0.331829    0.000000
    11  Te2   c     0.666667    0.333333    0.449624    0.000000
    12  Te2   c     0.333333    0.666667    0.547368    0.000000
    13  Te1   c     0.666667    0.333333    0.665162    0.000000
    14  Te2   c     1.000000    0.000000    0.782957    0.000000
    15  Te2   c     0.666667    0.333333    0.880701    0.000000
--------------------------------------------------------------------------------

  Final Cartesian lattice vectors (Angstroms) :

        4.443094    0.000000    0.000000
       -2.221547    3.847833   -0.000000
        0.000000   -0.000000   29.871527


  Final cell parameters and derivatives :

--------------------------------------------------------------------------------
       a            4.443094 Angstrom     dE/de1(xx)     0.000106 eV/strain
       b            4.443094 Angstrom     dE/de2(yy)     0.000106 eV/strain
       c           29.871527 Angstrom     dE/de3(zz)    -0.000993 eV/strain
       alpha       90.000000 Degrees      dE/de4(yz)     0.000000 eV/strain
       beta        90.000000 Degrees      dE/de5(xz)    -0.000000 eV/strain
       gamma      120.000000 Degrees      dE/de6(xy)    -0.000000 eV/strain
--------------------------------------------------------------------------------

  Primitive cell volume =           510.692097 Angs**3

  Density of cell =      6.109428 g/cm**3

  Non-primitive cell volume =           510.692097 Angs**3


  Final internal derivatives :

--------------------------------------------------------------------------------
   No.  Atomic          x             y             z           Radius
        Label          (eV)          (eV)          (eV)        (eV/Angs)
--------------------------------------------------------------------------------
      1 Sb    c       0.000000      0.000000      0.000000      0.000000
      2 Sb    c      -0.000000      0.000000      0.000927      0.000000
      3 Sb    c       0.000000     -0.000000     -0.000927      0.000000
      4 Sb    c      -0.000000      0.000000      0.000927      0.000000
      5 Sb    c       0.000000     -0.000000     -0.000927      0.000000
      6 Sb    c      -0.000000      0.000000      0.000927      0.000000
      7 Te1   c       0.000000     -0.000000     -0.000000      0.000000
      8 Te2   c      -0.000000      0.000000     -0.001194      0.000000
      9 Te2   c       0.000000     -0.000000      0.001194      0.000000
     10 Te1   c       0.000000      0.000000     -0.000000      0.000000
     11 Te2   c      -0.000000      0.000000     -0.001194      0.000000
     12 Te2   c       0.000000     -0.000000      0.001194      0.000000
     13 Te1   c      -0.000000     -0.000000      0.000000      0.000000
     14 Te2   c      -0.000000      0.000000     -0.001194      0.000000
     15 Te2   c       0.000000     -0.000000      0.001194      0.000000
--------------------------------------------------------------------------------
  Maximum abs         0.000000      0.000000      0.001194      0.000000
--------------------------------------------------------------------------------



  Elastic Constant Matrix: (Units=GPa)

-------------------------------------------------------------------------------
  Indices      1         2         3         4         5         6    
-------------------------------------------------------------------------------
       1     56.6774   21.4110   25.0288   13.8712   -0.0000   -0.0000
       2     21.4110   56.6774   25.0288  -13.8712    0.0000   -0.0000
       3     25.0288   25.0288   30.0252    0.0000   -0.0000   -0.0000
       4     13.8712  -13.8712    0.0000   20.4710   -0.0000    0.0000
       5     -0.0000    0.0000   -0.0000   -0.0000   20.4710   13.8712
       6     -0.0000   -0.0000   -0.0000    0.0000   13.8712   17.6332
-------------------------------------------------------------------------------


  Elastic Compliance Matrix: (Units=1/GPa)

-------------------------------------------------------------------------------
  Indices      1         2         3         4         5         6    
-------------------------------------------------------------------------------
       1    0.044113 -0.016611 -0.022926 -0.041147  0.000000  0.000000
       2   -0.016611  0.044113 -0.022926  0.041147 -0.000000 -0.000000
       3   -0.022926 -0.022926  0.071526 -0.000000  0.000000 -0.000000
       4   -0.041147  0.041147 -0.000000  0.104612  0.000000 -0.000000
       5    0.000000 -0.000000  0.000000  0.000000  0.104612 -0.082293
       6    0.000000 -0.000000 -0.000000 -0.000000 -0.082293  0.121447
-------------------------------------------------------------------------------

 Mechanical properties :

-------------------------------------------------------------------------------
  Convention :                    Reuss         Voigt         Hill
-------------------------------------------------------------------------------
  Bulk  Modulus (GPa)     =      28.71213      31.81300      30.26257
  Shear Modulus (GPa)     =       7.97504      16.50912      12.24208
-------------------------------------------------------------------------------
  Velocity S-wave (km/s)  =       3.61298       5.19830       4.47638
  Velocity P-wave (km/s)  =       8.02504       9.38626       8.73221
-------------------------------------------------------------------------------
  Compressibility (1/GPa) =    0.03482849
-------------------------------------------------------------------------------
  Stress axis :                     x             y             z
-------------------------------------------------------------------------------
  Youngs Moduli (GPa)     =      22.66909      22.66909      13.98086
-------------------------------------------------------------------------------
  Poissons Ratio (x)      =                     0.37655       0.32052
  Poissons Ratio (y)      =       0.37655                     0.32052
  Poissons Ratio (z)      =       0.51970       0.51970
-------------------------------------------------------------------------------


  Piezoelectric Strain Matrix: (Units=C/m**2)

-------------------------------------------------------------------------------
  Indices      1         2         3         4         5         6    
-------------------------------------------------------------------------------
       x    -0.00000  -0.00000  -0.00000  -0.00000  -0.00000  -0.00000
       y    -0.00000  -0.00000  -0.00000  -0.00000  -0.00000  -0.00000
       z    -0.00000  -0.00000  -0.00000  -0.00000  -0.00000  -0.00000
-------------------------------------------------------------------------------


  Piezoelectric Stress Matrix: (Units=10**-11 C/N)

-------------------------------------------------------------------------------
  Indices      1         2         3         4         5         6    
-------------------------------------------------------------------------------
       x     0.00000   0.00000   0.00000   0.00000   0.00000   0.00000
       y     0.00000   0.00000   0.00000   0.00000   0.00000   0.00000
       z     0.00000   0.00000   0.00000   0.00000   0.00000   0.00000
-------------------------------------------------------------------------------


  Static dielectric constant tensor : 

-------------------------------------------------------------------------------
              x         y         z
-------------------------------------------------------------------------------
       x     1.00000   0.00000   0.00000
       y     0.00000   1.00000   0.00000
       z     0.00000   0.00000   1.00000
--------------------------------------------------------------------------------

  Static refractive indices : 

-------------------------------------------------------------------------------
    1 =    1.00000      2 =    1.00000      3 =    1.00000
-------------------------------------------------------------------------------


  Phonon Calculation : 

  K direction for n-a correction at gamma =  1.00000  1.00000  1.00000

  Number of k points for this configuration =   30

--------------------------------------------------------------------------------
  K point   1 =   0.000000  0.000000  0.000000  Weight =    0.033
--------------------------------------------------------------------------------

  Frequencies (cm-1) [NB: Negative implies an imaginary mode]:

   -0.00    0.00    0.00   19.73   19.73   19.73   19.73   24.09   24.09
   41.86   41.86   41.86   41.86   51.40   51.40   58.20   58.20   73.22
   73.22   77.43   77.43   77.43   77.43   81.37   83.83  100.11  100.11
  113.69  115.27  115.27  118.79  118.79  118.79  118.79  120.68  120.68
  121.98  121.98  123.00  123.00  123.28  123.28  123.28  123.28  125.82


--------------------------------------------------------------------------------
  K point   2 =   0.000000  0.000000  0.017241  Weight =    0.033
--------------------------------------------------------------------------------

  Frequencies (cm-1) [NB: Negative implies an imaginary mode]:

    0.35    0.35    0.43   19.42   19.42   20.03   20.03   23.71   24.46
   41.62   41.62   42.11   42.11   51.39   51.39   57.81   58.59   73.22
   73.22   77.35   77.35   77.50   77.50   81.30   83.89   99.94  100.27
  113.69  115.20  115.34  118.76  118.76  118.82  118.82  120.67  120.67
  121.98  121.98  122.91  123.09  123.26  123.26  123.30  123.30  125.82


--------------------------------------------------------------------------------
  K point   3 =   0.000000  0.000000  0.034483  Weight =    0.033
--------------------------------------------------------------------------------

  Frequencies (cm-1) [NB: Negative implies an imaginary mode]:

    0.70    0.70    0.85   19.11   19.11   20.33   20.33   23.34   24.83
   41.37   41.37   42.35   42.35   51.38   51.38   57.43   58.98   73.23
   73.23   77.27   77.27   77.57   77.57   81.13   84.06   99.77  100.43
  113.70  115.13  115.41  118.73  118.73  118.85  118.85  120.67  120.67
  121.99  121.99  122.82  123.18  123.25  123.25  123.31  123.31  125.81


--------------------------------------------------------------------------------
  K point   4 =   0.000000  0.000000  0.051724  Weight =    0.033
--------------------------------------------------------------------------------

  Frequencies (cm-1) [NB: Negative implies an imaginary mode]:

    1.06    1.06    1.28   18.80   18.80   20.63   20.63   22.95   25.19
   41.13   41.13   42.60   42.60   51.36   51.36   57.06   59.38   73.24
   73.24   77.20   77.20   77.64   77.64   80.88   84.31   99.59  100.58
  113.70  115.07  115.48  118.71  118.71  118.88  118.88  120.66  120.66
  121.99  121.99  122.73  123.23  123.23  123.26  123.33  123.33  125.81


--------------------------------------------------------------------------------
  K point   5 =   0.000000  0.000000  0.068966  Weight =    0.033
--------------------------------------------------------------------------------

  Frequencies (cm-1) [NB: Negative implies an imaginary mode]:

    1.41    1.41    1.71   18.49   18.49   20.92   20.92   22.57   25.55
   40.89   40.89   42.84   42.84   51.34   51.34   56.68   59.78   73.26
   73.26   77.12   77.12   77.70   77.70   80.57   84.60   99.40  100.73
  113.70  115.01  115.55  118.68  118.68  118.91  118.91  120.65  120.65
  122.00  122.00  122.64  123.21  123.21  123.34  123.34  123.35  125.80


--------------------------------------------------------------------------------
  K point   6 =   0.000000  0.000000  0.086207  Weight =    0.033
--------------------------------------------------------------------------------

  Frequencies (cm-1) [NB: Negative implies an imaginary mode]:

    1.76    1.76    2.13   18.17   18.17   21.21   21.21   22.18   25.90
   40.65   40.65   43.09   43.09   51.30   51.30   56.32   60.19   73.28
   73.28   77.04   77.04   77.77   77.77   80.24   84.91   99.21  100.87
  113.70  114.95  115.63  118.66  118.66  118.94  118.94  120.64  120.64
  122.02  122.02  122.55  123.19  123.19  123.35  123.35  123.43  125.80


--------------------------------------------------------------------------------
  K point   7 =   0.000000  0.000000  0.103448  Weight =    0.033
--------------------------------------------------------------------------------

  Frequencies (cm-1) [NB: Negative implies an imaginary mode]:

    2.11    2.11    2.56   17.85   17.85   21.49   21.49   21.79   26.24
   40.41   40.41   43.33   43.33   51.26   51.26   55.96   60.60   73.30
   73.30   76.95   76.95   77.83   77.83   79.88   85.25   99.01  101.00
  113.70  114.89  115.70  118.63  118.63  118.98  118.98  120.62  120.62
  122.03  122.03  122.46  123.18  123.18  123.37  123.37  123.52  125.79


--------------------------------------------------------------------------------
  K point   8 =   0.000000  0.000000  0.120690  Weight =    0.033
--------------------------------------------------------------------------------

  Frequencies (cm-1) [NB: Negative implies an imaginary mode]:

    2.47    2.47    2.99   17.53   17.53   21.39   21.77   21.77   26.58
   40.18   40.18   43.58   43.58   51.21   51.21   55.61   61.01   73.33
   73.33   76.87   76.87   77.89   77.89   79.51   85.59   98.81  101.13
  113.71  114.83  115.78  118.61  118.61  119.01  119.01  120.60  120.60
  122.04  122.04  122.37  123.16  123.16  123.38  123.38  123.60  125.77


--------------------------------------------------------------------------------
  K point   9 =   0.000000  0.000000  0.137931  Weight =    0.033
--------------------------------------------------------------------------------

  Frequencies (cm-1) [NB: Negative implies an imaginary mode]:

    2.82    2.82    3.41   17.21   17.21   21.00   22.05   22.05   26.91
   39.94   39.94   43.82   43.82   51.15   51.15   55.27   61.42   73.36
   73.36   76.78   76.78   77.95   77.95   79.13   85.94   98.60  101.25
  113.71  114.77  115.85  118.58  118.58  119.04  119.04  120.58  120.58
  122.06  122.06  122.28  123.14  123.14  123.39  123.39  123.68  125.76


--------------------------------------------------------------------------------
  K point  10 =   0.000000  0.000000  0.155172  Weight =    0.033
--------------------------------------------------------------------------------

  Frequencies (cm-1) [NB: Negative implies an imaginary mode]:

    3.17    3.17    3.84   16.89   16.89   20.60   22.31   22.31   27.24
   39.71   39.71   44.06   44.06   51.09   51.09   54.93   61.83   73.40
   73.40   76.69   76.69   78.00   78.00   78.74   86.29   98.39  101.37
  113.72  114.72  115.93  118.56  118.56  119.08  119.08  120.56  120.56
  122.08  122.08  122.19  123.12  123.12  123.40  123.40  123.76  125.75


--------------------------------------------------------------------------------
  K point  11 =   0.000000  0.000000  0.172414  Weight =    0.033
--------------------------------------------------------------------------------

  Frequencies (cm-1) [NB: Negative implies an imaginary mode]:

    3.52    3.52    4.27   16.56   16.56   20.20   22.58   22.58   27.55
   39.49   39.49   44.30   44.30   51.01   51.01   54.60   62.25   73.44
   73.44   76.61   76.61   78.05   78.05   78.35   86.65   98.17  101.48
  113.72  114.66  116.01  118.54  118.54  119.11  119.11  120.53  120.53
  122.10  122.10  122.11  123.09  123.09  123.42  123.42  123.84  125.73


--------------------------------------------------------------------------------
  K point  12 =   0.000000  0.000000  0.189655  Weight =    0.033
--------------------------------------------------------------------------------

  Frequencies (cm-1) [NB: Negative implies an imaginary mode]:

    3.87    3.87    4.69   16.23   16.23   19.80   22.84   22.84   27.86
   39.27   39.27   44.54   44.54   50.93   50.93   54.28   62.67   73.49
   73.49   76.52   76.52   77.95   78.10   78.10   87.01   97.94  101.58
  113.73  114.61  116.08  118.52  118.52  119.15  119.15  120.50  120.50
  122.02  122.12  122.12  123.07  123.07  123.43  123.43  123.92  125.71


--------------------------------------------------------------------------------
  K point  13 =   0.000000  0.000000  0.206897  Weight =    0.033
--------------------------------------------------------------------------------

  Frequencies (cm-1) [NB: Negative implies an imaginary mode]:

    4.22    4.22    5.12   15.90   15.90   19.39   23.09   23.09   28.16
   39.05   39.05   44.78   44.78   50.85   50.85   53.98   63.09   73.54
   73.54   76.42   76.42   77.54   78.15   78.15   87.36   97.71  101.68
  113.74  114.56  116.16  118.50  118.50  119.18  119.18  120.48  120.48
  121.93  122.15  122.15  123.05  123.05  123.44  123.44  124.00  125.69


--------------------------------------------------------------------------------
  K point  14 =   0.000000  0.000000  0.224138  Weight =    0.033
--------------------------------------------------------------------------------

  Frequencies (cm-1) [NB: Negative implies an imaginary mode]:

    4.58    4.58    5.55   15.57   15.57   18.98   23.33   23.33   28.44
   38.84   38.84   45.02   45.02   50.75   50.75   53.68   63.51   73.59
   73.59   76.33   76.33   77.13   78.20   78.20   87.72   97.48  101.77
  113.74  114.52  116.23  118.49  118.49  119.22  119.22  120.45  120.45
  121.85  122.17  122.17  123.03  123.03  123.45  123.45  124.07  125.67


--------------------------------------------------------------------------------
  K point  15 =   0.000000  0.000000  0.241379  Weight =    0.033
--------------------------------------------------------------------------------

  Frequencies (cm-1) [NB: Negative implies an imaginary mode]:

    4.93    4.93    5.97   15.24   15.24   18.58   23.56   23.56   28.72
   38.64   38.64   45.25   45.25   50.65   50.65   53.39   63.94   73.65
   73.65   76.24   76.24   76.72   78.24   78.24   88.07   97.24  101.86
  113.75  114.47  116.31  118.47  118.47  119.26  119.26  120.41  120.41
  121.77  122.20  122.20  123.01  123.01  123.45  123.45  124.15  125.65


--------------------------------------------------------------------------------
  K point  16 =   0.000000  0.000000  0.258621  Weight =    0.033
--------------------------------------------------------------------------------

  Frequencies (cm-1) [NB: Negative implies an imaginary mode]:

    5.28    5.28    6.40   14.91   14.91   18.17   23.79   23.79   28.98
   38.44   38.44   45.48   45.48   50.55   50.55   53.12   64.36   73.70
   73.70   76.15   76.15   76.31   78.28   78.28   88.42   96.99  101.94
  113.76  114.43  116.38  118.45  118.45  119.30  119.30  120.38  120.38
  121.69  122.22  122.22  122.98  122.98  123.46  123.46  124.22  125.62


--------------------------------------------------------------------------------
  K point  17 =   0.000000  0.000000  0.275862  Weight =    0.033
--------------------------------------------------------------------------------

  Frequencies (cm-1) [NB: Negative implies an imaginary mode]:

    5.63    5.63    6.82   14.58   14.58   17.76   24.00   24.00   29.24
   38.25   38.25   45.71   45.71   50.43   50.43   52.86   64.79   73.77
   73.77   75.90   76.05   76.05   78.32   78.32   88.77   96.74  102.02
  113.77  114.39  116.45  118.44  118.44  119.33  119.33  120.35  120.35
  121.61  122.25  122.25  122.96  122.96  123.47  123.47  124.29  125.59


--------------------------------------------------------------------------------
  K point  18 =   0.000000  0.000000  0.293103  Weight =    0.033
--------------------------------------------------------------------------------

  Frequencies (cm-1) [NB: Negative implies an imaginary mode]:

    5.98    5.98    7.25   14.24   14.24   17.35   24.21   24.21   29.47
   38.07   38.07   45.94   45.94   50.31   50.31   52.61   65.22   73.83
   73.83   75.48   75.96   75.96   78.35   78.35   89.12   96.49  102.09
  113.78  114.35  116.52  118.43  118.43  119.37  119.37  120.31  120.31
  121.54  122.28  122.28  122.94  122.94  123.48  123.48  124.36  125.56


--------------------------------------------------------------------------------
  K point  19 =   0.000000  0.000000  0.310345  Weight =    0.033
--------------------------------------------------------------------------------

  Frequencies (cm-1) [NB: Negative implies an imaginary mode]:

    6.33    6.33    7.67   13.91   13.91   16.93   24.40   24.40   29.70
   37.90   37.90   46.16   46.16   50.19   50.19   52.38   65.64   73.90
   73.90   75.06   75.86   75.86   78.38   78.38   89.47   96.23  102.15
  113.79  114.31  116.58  118.41  118.41  119.41  119.41  120.28  120.28
  121.46  122.31  122.31  122.91  122.91  123.48  123.48  124.43  125.53


--------------------------------------------------------------------------------
  K point  20 =   0.000000  0.000000  0.327586  Weight =    0.033
--------------------------------------------------------------------------------

  Frequencies (cm-1) [NB: Negative implies an imaginary mode]:

    6.68    6.68    8.10   13.57   13.57   16.52   24.58   24.58   29.91
   37.73   37.73   46.39   46.39   50.05   50.05   52.17   66.07   73.98
   73.98   74.64   75.77   75.77   78.41   78.41   89.81   95.96  102.21
  113.81  114.27  116.64  118.40  118.40  119.45  119.45  120.24  120.24
  121.40  122.33  122.33  122.89  122.89  123.49  123.49  124.50  125.50


--------------------------------------------------------------------------------
  K point  21 =   0.000000  0.000000  0.344828  Weight =    0.033
--------------------------------------------------------------------------------

  Frequencies (cm-1) [NB: Negative implies an imaginary mode]:

    7.03    7.03    8.52   13.23   13.23   16.10   24.75   24.75   30.10
   37.58   37.58   46.61   46.61   49.92   49.92   51.97   66.50   74.05
   74.05   74.22   75.67   75.67   78.44   78.44   90.15   95.70  102.26
  113.82  114.23  116.70  118.39  118.39  119.49  119.49  120.20  120.20
  121.33  122.36  122.36  122.86  122.86  123.49  123.49  124.57  125.47


--------------------------------------------------------------------------------
  K point  22 =   0.000000  0.000000  0.362069  Weight =    0.033
--------------------------------------------------------------------------------

  Frequencies (cm-1) [NB: Negative implies an imaginary mode]:

    7.38    7.38    8.95   12.89   12.89   15.69   24.91   24.91   30.27
   37.45   37.45   46.82   46.82   49.77   49.77   51.79   66.93   73.80
   74.13   74.13   75.57   75.57   78.46   78.46   90.49   95.42  102.31
  113.83  114.20  116.76  118.38  118.38  119.53  119.53  120.16  120.16
  121.28  122.39  122.39  122.84  122.84  123.50  123.50  124.63  125.43


--------------------------------------------------------------------------------
  K point  23 =   0.000000  0.000000  0.379310  Weight =    0.033
--------------------------------------------------------------------------------

  Frequencies (cm-1) [NB: Negative implies an imaginary mode]:

    7.72    7.72    9.37   12.55   12.55   15.27   25.05   25.05   30.43
   37.32   37.32   47.04   47.04   49.62   49.62   51.62   67.36   73.37
   74.21   74.21   75.48   75.48   78.48   78.48   90.83   95.14  102.35
  113.85  114.17  116.81  118.37  118.37  119.57  119.57  120.13  120.13
  121.22  122.42  122.42  122.81  122.81  123.50  123.50  124.69  125.39


--------------------------------------------------------------------------------
  K point  24 =   0.000000  0.000000  0.396552  Weight =    0.033
--------------------------------------------------------------------------------

  Frequencies (cm-1) [NB: Negative implies an imaginary mode]:

    8.07    8.07    9.80   12.21   12.21   14.85   25.17   25.17   30.57
   37.21   37.21   47.25   47.25   49.47   49.47   51.48   67.79   72.95
   74.29   74.29   75.38   75.38   78.50   78.50   91.16   94.86  102.39
  113.86  114.14  116.85  118.37  118.37  119.61  119.61  120.09  120.09
  121.18  122.45  122.45  122.78  122.78  123.51  123.51  124.75  125.35


--------------------------------------------------------------------------------
  K point  25 =   0.000000  0.000000  0.413793  Weight =    0.033
--------------------------------------------------------------------------------

  Frequencies (cm-1) [NB: Negative implies an imaginary mode]:

    8.42    8.42   10.22   11.87   11.87   14.44   25.27   25.27   30.69
   37.11   37.11   47.45   47.45   49.31   49.31   51.36   68.22   72.52
   74.37   74.37   75.29   75.29   78.52   78.52   91.49   94.57  102.42
  113.88  114.11  116.89  118.36  118.36  119.65  119.65  120.05  120.05
  121.14  122.48  122.48  122.76  122.76  123.51  123.51  124.81  125.31


--------------------------------------------------------------------------------
  K point  26 =   0.000000  0.000000  0.431034  Weight =    0.033
--------------------------------------------------------------------------------

  Frequencies (cm-1) [NB: Negative implies an imaginary mode]:

    8.77    8.77   10.64   11.53   11.53   14.02   25.36   25.36   30.79
   37.03   37.03   47.66   47.66   49.14   49.14   51.26   68.66   72.09
   74.46   74.46   75.19   75.19   78.53   78.53   91.81   94.28  102.44
  113.90  114.08  116.92  118.36  118.36  119.69  119.69  120.01  120.01
  121.10  122.50  122.50  122.73  122.73  123.51  123.51  124.87  125.27


--------------------------------------------------------------------------------
  K point  27 =   0.000000  0.000000  0.448276  Weight =    0.033
--------------------------------------------------------------------------------

  Frequencies (cm-1) [NB: Negative implies an imaginary mode]:

    9.11    9.11   11.07   11.18   11.18   13.60   25.43   25.43   30.86
   36.97   36.97   47.86   47.86   48.97   48.97   51.18   69.09   71.67
   74.54   74.54   75.10   75.10   78.54   78.54   92.13   93.99  102.46
  113.92  114.05  116.95  118.35  118.35  119.73  119.73  119.97  119.97
  121.07  122.53  122.53  122.70  122.70  123.52  123.52  124.93  125.23


--------------------------------------------------------------------------------
  K point  28 =   0.000000  0.000000  0.465517  Weight =    0.033
--------------------------------------------------------------------------------

  Frequencies (cm-1) [NB: Negative implies an imaginary mode]:

    9.46    9.46   10.84   10.84   11.49   13.18   25.48   25.48   30.92
   36.93   36.93   48.05   48.05   48.80   48.80   51.12   69.52   71.24
   74.63   74.63   75.00   75.00   78.55   78.55   92.45   93.69  102.47
  113.94  114.03  116.96  118.35  118.35  119.77  119.77  119.93  119.93
  121.05  122.56  122.56  122.67  122.67  123.52  123.52  124.98  125.18


--------------------------------------------------------------------------------
  K point  29 =   0.000000  0.000000  0.482759  Weight =    0.033
--------------------------------------------------------------------------------

  Frequencies (cm-1) [NB: Negative implies an imaginary mode]:

    9.81    9.81   10.50   10.50   11.91   12.76   25.51   25.51   30.95
   36.90   36.90   48.25   48.25   48.62   48.62   51.09   69.95   70.81
   74.72   74.72   74.91   74.91   78.55   78.55   92.77   93.38  102.48
  113.96  114.00  116.97  118.35  118.35  119.81  119.81  119.89  119.89
  121.04  122.59  122.59  122.65  122.65  123.52  123.52  125.03  125.13


--------------------------------------------------------------------------------
  K point  30 =   0.000000  0.000000  0.500000  Weight =    0.033
--------------------------------------------------------------------------------

  Frequencies (cm-1) [NB: Negative implies an imaginary mode]:

   10.15   10.15   10.15   10.15   12.33   12.33   25.52   25.52   30.96
   36.89   36.89   48.43   48.43   48.43   48.43   51.08   70.38   70.38
   74.82   74.82   74.82   74.82   78.55   78.55   93.08   93.08  102.49
  113.98  113.98  116.98  118.35  118.35  119.85  119.85  119.85  119.85
  121.04  122.62  122.62  122.62  122.62  123.52  123.52  125.08  125.08


--------------------------------------------------------------------------------
  Phonon properties (per mole of unit cells): Temperature =      0.000 K
--------------------------------------------------------------------------------
  Zero point energy            =        0.217946 eV
--------------------------------------------------------------------------------

  Phonon density of states : 

--------------------------------------------------------------------------------
 Frequency (cm-1) Density of States                                             
--------------------------------------------------------------------------------
    0.00000 |                                                              0.000
    0.00000 |                                                              0.000
    0.00000 |                                                              0.000
    0.00000 |                                                              0.000
    0.00000 |                                                              0.000
    0.00000 |                                                              0.000
    0.00001 |                                                              0.000
    0.00001 |                                                              0.000
    0.00001 |                                                              0.000
    0.00001 |                                                              0.000
    0.00001 |                                                              0.000
    0.00001 |                                                              0.000
    0.00001 |                                                              0.000
    0.00001 |                                                              0.000
    0.00001 |                                                              0.000
    0.00001 |                                                              0.000
    0.00002 |                                                              0.000
    0.00002 |                                                              0.000
    0.00002 |                                                              0.000
    0.00002 |                                                              0.000
    0.00002 |                                                              0.000
    0.00002 |                                                              0.000
    0.00002 |                                                              0.000
    0.00002 |                                                              0.000
    0.00002 |                                                              0.000
    0.00002 |                                                              0.000
    0.00003 |                                                              0.000
    0.00003 |                                                              0.000
    0.00003 |                                                              0.000
    0.00003 |                                                              0.000
    0.00003 |                                                              0.000
    0.00003 |                                                              0.000
    0.00003 |                                                              0.000
    0.00003 |                                                              0.000
    0.00003 |                                                              0.000
    0.00003 |                                                              0.000
    0.00004 |                                                              0.000
    0.00004 |                                                              0.000
    0.00004 |                                                              0.000
    0.00004 |                                                              0.000
    0.00004 |                                                              0.000
    0.00004 |                                                              0.000
    0.00004 |                                                              0.000
    0.00004 |                                                              0.000
    0.00004 |                                                              0.000
    0.00004 |                                                              0.000
    0.00005 |                                                              0.000
    0.00005 |                                                              0.000
    0.00005 |                                                              0.000
    0.00005 |                                                              0.000
    0.00005 |                                                              0.000
    0.00005 |                                                              0.000
    0.00005 |                                                              0.000
    0.00005 |                                                              0.000
    0.00005 |                                                              0.000
    0.00005 |                                                              0.000
    0.00006 |                                                              0.000
    0.00006 |                                                              0.000
    0.00006 |                                                              0.000
    0.00006 |                                                              0.000
    0.00006 |                                                              0.000
    0.00006 |                                                              0.000
    0.00006 |                                                              0.000
    0.00006 |                                                              0.000
--------------------------------------------------------------------------------




  Phonon density of states written as Sb2Te3_K_Z.dens               



  Phonon dispersion curves : 

--------------------------------------------------------------------------------
  Section number =   1
--------------------------------------------------------------------------------
  Frequency (cm-1) Phonon dispersion                                            
--------------------------------------------------------------------------------
   130.39   |                                                            
   124.95   | * * * * * * * * * * * * * * * * * * * * * * * * * * * * * *
   119.52   | * * * * * * * * * * * * * * * * * * * * * * * * * * * * * *
   114.09   | * * * * * * * * * * * * * * * * * * * * * * * * * * * * * *
   108.65   | * * * * * * * * * * * * * * * * * * * * * * * * * * * * * *
   103.22   |                                                            
    97.79   | * * * * * * * * * * * * * * * * * * * * * * * * * * * * * *
    92.36   |                         * * * * * * * * * * * * * * * * * *
    86.92   |                       * * * * * * * * * * * * * * * *      
    81.49   | * * * * * * * * * * *                                      
    76.06   | * * * * * * * * * * * * * * * * * * * * * * * * * * * * * *
    70.63   | * * * * * * * * * * * * * * * * * * * * * * * * * * * * * *
    65.19   |                                   * * * * * * * * * * * * *
    59.76   |         * * * * * * * * * * * * *                          
    54.33   | * * * * * * * * * * *                                      
    48.89   | * * * * * * * * * * * * * * * * * * * * * * * * * * * * * *
    43.46   |               * * * * * * * * * * * * * * * * * * * * * * *
    38.03   | * * * * * * * * * * * * * * * * * *                        
    32.60   |                                     * * * * * * * * * * * *
    27.16   |                   * * * * * * * * * * * * * * * * * * * * *
    21.73   | * * * * * * * * * * * * * * * * * * * * * * * * * * * * * *
    16.30   | * * * * * * * * * * * * * * * * * * * *                    
    10.87   |                       * * * * * * * * * * * * * * * * * * *
     5.43   |                           * * * * * * * * * * * * * * * * *
     0.00   | * * * * * * * * * * * * * * * *                            
--------------------------------------------------------------------------------


  Phonon dispersion written as Sb2Te3_K_Z.disp               

  Time to end of optimisation =       0.2600 seconds


  Peak dynamic memory used =       0.55 MB 


  Timing analysis for GULP :

--------------------------------------------------------------------------------
  Task / Subroutine                                          Time (Seconds)
--------------------------------------------------------------------------------
  Calculation of real space energy and derivatives                0.1560
--------------------------------------------------------------------------------
  Total CPU time                                                  0.2600
--------------------------------------------------------------------------------


  Job Finished at 14:26.43 21st July       2010                               

