********************************************************************************
*                       GENERAL UTILITY LATTICE PROGRAM                        *
*                                 Julian Gale                                  *
*                      Nanochemistry Research Institute                        *
*             Curtin University of Technology, Western Australia               *
********************************************************************************
* Version = 3.4.7 * Last modified =  21st July 2009                            *
********************************************************************************
*  fit          - perform fitting run                                          *
*  optimise     - perform optimisation run after fitting                       *
*  property     - calculate properties for final geometry                      *
*  fbfgs        - use full numerical Hessian in BFGS for fitting               *
********************************************************************************

  Job Started  at 12:04.01 24th June       2010                               

  Number of CPUs =     1


  Total number of configurations input = 133

********************************************************************************
*  Input for Configuration =   1                                               *
********************************************************************************

  Formula = Sb2Te3                                                      

  Number of irreducible atoms/shells =       5


  Total number atoms/shells =       5

  Dimensionality = 3               :  Bulk   



  Cartesian lattice vectors (Angstroms) :

       -2.504286    0.000000   10.443767
        1.252143   -2.168775   10.443767
        1.252143    2.168775   10.443767

  Cell parameters (Angstroms/Degrees):

  a =      10.7398    alpha =  23.3006
  b =      10.7398    beta  =  23.3006
  c =      10.7398    gamma =  23.3006

  Initial cell volume =         170.167643 Angs**3

  Temperature of configuration =  0.000     K 

  Pressure of configuration =         0.000 GPa 

  Fractional coordinates of asymmetric unit :

--------------------------------------------------------------------------------
   No.  Atomic       x           y          z         Charge      Occupancy
        Label      (Frac)      (Frac)     (Frac)        (e)         (Frac)  
--------------------------------------------------------------------------------
      1 Sb    c    0.369021    0.369021    0.369021      0.6200    1.000000    
      2 Sb    c    0.603203    0.603203    0.603203      0.6200    1.000000    
      3 Te1   c    0.000000    0.000000    0.000000     -0.5000    1.000000    
      4 Te2   c    0.784571    0.784571    0.784571     -0.3700    1.000000    
      5 Te2   c    0.215429    0.215429    0.215429     -0.3700    1.000000    
--------------------------------------------------------------------------------



********************************************************************************
*  Input for Configuration =   2                                               *
********************************************************************************

  Formula = Sb2Te3                                                      

  Number of irreducible atoms/shells =       5


  Total number atoms/shells =       5

  Dimensionality = 3               :  Bulk   



  Cartesian lattice vectors (Angstroms) :

       -2.504286    0.000000   10.443767
        1.252143   -2.168775   10.443767
        1.252143    2.168775   10.443767

  Cell parameters (Angstroms/Degrees):

  a =      10.7398    alpha =  23.3006
  b =      10.7398    beta  =  23.3006
  c =      10.7398    gamma =  23.3006

  Initial cell volume =         170.167643 Angs**3

  Temperature of configuration =  0.000     K 

  Pressure of configuration =         0.000 GPa 

  Fractional coordinates of asymmetric unit :

--------------------------------------------------------------------------------
   No.  Atomic       x           y          z         Charge      Occupancy
        Label      (Frac)      (Frac)     (Frac)        (e)         (Frac)  
--------------------------------------------------------------------------------
      1 Sb    c    0.372989    0.372989    0.372989      0.6200    1.000000    
      2 Sb    c    0.603203    0.603203    0.603203      0.6200    1.000000    
      3 Te1   c    0.000000    0.000000    0.000000     -0.5000    1.000000    
      4 Te2   c    0.784571    0.784571    0.784571     -0.3700    1.000000    
      5 Te2   c    0.215429    0.215429    0.215429     -0.3700    1.000000    
--------------------------------------------------------------------------------



********************************************************************************
*  Input for Configuration =   3                                               *
********************************************************************************

  Formula = Sb2Te3                                                      

  Number of irreducible atoms/shells =       5


  Total number atoms/shells =       5

  Dimensionality = 3               :  Bulk   



  Cartesian lattice vectors (Angstroms) :

       -2.504286    0.000000   10.443767
        1.252143   -2.168775   10.443767
        1.252143    2.168775   10.443767

  Cell parameters (Angstroms/Degrees):

  a =      10.7398    alpha =  23.3006
  b =      10.7398    beta  =  23.3006
  c =      10.7398    gamma =  23.3006

  Initial cell volume =         170.167643 Angs**3

  Temperature of configuration =  0.000     K 

  Pressure of configuration =         0.000 GPa 

  Fractional coordinates of asymmetric unit :

--------------------------------------------------------------------------------
   No.  Atomic       x           y          z         Charge      Occupancy
        Label      (Frac)      (Frac)     (Frac)        (e)         (Frac)  
--------------------------------------------------------------------------------
      1 Sb    c    0.376957    0.376957    0.376957      0.6200    1.000000    
      2 Sb    c    0.603203    0.603203    0.603203      0.6200    1.000000    
      3 Te1   c    0.000000    0.000000    0.000000     -0.5000    1.000000    
      4 Te2   c    0.784571    0.784571    0.784571     -0.3700    1.000000    
      5 Te2   c    0.215429    0.215429    0.215429     -0.3700    1.000000    
--------------------------------------------------------------------------------



********************************************************************************
*  Input for Configuration =   4                                               *
********************************************************************************

  Formula = Sb2Te3                                                      

  Number of irreducible atoms/shells =       5


  Total number atoms/shells =       5

  Dimensionality = 3               :  Bulk   



  Cartesian lattice vectors (Angstroms) :

       -2.504286    0.000000   10.443767
        1.252143   -2.168775   10.443767
        1.252143    2.168775   10.443767

  Cell parameters (Angstroms/Degrees):

  a =      10.7398    alpha =  23.3006
  b =      10.7398    beta  =  23.3006
  c =      10.7398    gamma =  23.3006

  Initial cell volume =         170.167643 Angs**3

  Temperature of configuration =  0.000     K 

  Pressure of configuration =         0.000 GPa 

  Fractional coordinates of asymmetric unit :

--------------------------------------------------------------------------------
   No.  Atomic       x           y          z         Charge      Occupancy
        Label      (Frac)      (Frac)     (Frac)        (e)         (Frac)  
--------------------------------------------------------------------------------
      1 Sb    c    0.380925    0.380925    0.380925      0.6200    1.000000    
      2 Sb    c    0.603203    0.603203    0.603203      0.6200    1.000000    
      3 Te1   c    0.000000    0.000000    0.000000     -0.5000    1.000000    
      4 Te2   c    0.784571    0.784571    0.784571     -0.3700    1.000000    
      5 Te2   c    0.215429    0.215429    0.215429     -0.3700    1.000000    
--------------------------------------------------------------------------------



********************************************************************************
*  Input for Configuration =   5                                               *
********************************************************************************

  Formula = Sb2Te3                                                      

  Number of irreducible atoms/shells =       5


  Total number atoms/shells =       5

  Dimensionality = 3               :  Bulk   



  Cartesian lattice vectors (Angstroms) :

       -2.504286    0.000000   10.443767
        1.252143   -2.168775   10.443767
        1.252143    2.168775   10.443767

  Cell parameters (Angstroms/Degrees):

  a =      10.7398    alpha =  23.3006
  b =      10.7398    beta  =  23.3006
  c =      10.7398    gamma =  23.3006

  Initial cell volume =         170.167643 Angs**3

  Temperature of configuration =  0.000     K 

  Pressure of configuration =         0.000 GPa 

  Fractional coordinates of asymmetric unit :

--------------------------------------------------------------------------------
   No.  Atomic       x           y          z         Charge      Occupancy
        Label      (Frac)      (Frac)     (Frac)        (e)         (Frac)  
--------------------------------------------------------------------------------
      1 Sb    c    0.384893    0.384893    0.384893      0.6200    1.000000    
      2 Sb    c    0.603203    0.603203    0.603203      0.6200    1.000000    
      3 Te1   c    0.000000    0.000000    0.000000     -0.5000    1.000000    
      4 Te2   c    0.784571    0.784571    0.784571     -0.3700    1.000000    
      5 Te2   c    0.215429    0.215429    0.215429     -0.3700    1.000000    
--------------------------------------------------------------------------------



********************************************************************************
*  Input for Configuration =   6                                               *
********************************************************************************

  Formula = Sb2Te3                                                      

  Number of irreducible atoms/shells =       5


  Total number atoms/shells =       5

  Dimensionality = 3               :  Bulk   



  Cartesian lattice vectors (Angstroms) :

       -2.504286    0.000000   10.443767
        1.252143   -2.168775   10.443767
        1.252143    2.168775   10.443767

  Cell parameters (Angstroms/Degrees):

  a =      10.7398    alpha =  23.3006
  b =      10.7398    beta  =  23.3006
  c =      10.7398    gamma =  23.3006

  Initial cell volume =         170.167643 Angs**3

  Temperature of configuration =  0.000     K 

  Pressure of configuration =         0.000 GPa 

  Fractional coordinates of asymmetric unit :

--------------------------------------------------------------------------------
   No.  Atomic       x           y          z         Charge      Occupancy
        Label      (Frac)      (Frac)     (Frac)        (e)         (Frac)  
--------------------------------------------------------------------------------
      1 Sb    c    0.388861    0.388861    0.388861      0.6200    1.000000    
      2 Sb    c    0.603203    0.603203    0.603203      0.6200    1.000000    
      3 Te1   c    0.000000    0.000000    0.000000     -0.5000    1.000000    
      4 Te2   c    0.784571    0.784571    0.784571     -0.3700    1.000000    
      5 Te2   c    0.215429    0.215429    0.215429     -0.3700    1.000000    
--------------------------------------------------------------------------------



********************************************************************************
*  Input for Configuration =   7                                               *
********************************************************************************

  Formula = Sb2Te3                                                      

  Number of irreducible atoms/shells =       5


  Total number atoms/shells =       5

  Dimensionality = 3               :  Bulk   



  Cartesian lattice vectors (Angstroms) :

       -2.504286    0.000000   10.443767
        1.252143   -2.168775   10.443767
        1.252143    2.168775   10.443767

  Cell parameters (Angstroms/Degrees):

  a =      10.7398    alpha =  23.3006
  b =      10.7398    beta  =  23.3006
  c =      10.7398    gamma =  23.3006

  Initial cell volume =         170.167643 Angs**3

  Temperature of configuration =  0.000     K 

  Pressure of configuration =         0.000 GPa 

  Fractional coordinates of asymmetric unit :

--------------------------------------------------------------------------------
   No.  Atomic       x           y          z         Charge      Occupancy
        Label      (Frac)      (Frac)     (Frac)        (e)         (Frac)  
--------------------------------------------------------------------------------
      1 Sb    c    0.392829    0.392829    0.392829      0.6200    1.000000    
      2 Sb    c    0.603203    0.603203    0.603203      0.6200    1.000000    
      3 Te1   c    0.000000    0.000000    0.000000     -0.5000    1.000000    
      4 Te2   c    0.784571    0.784571    0.784571     -0.3700    1.000000    
      5 Te2   c    0.215429    0.215429    0.215429     -0.3700    1.000000    
--------------------------------------------------------------------------------



********************************************************************************
*  Input for Configuration =   8                                               *
********************************************************************************

  Formula = Sb2Te3                                                      

  Number of irreducible atoms/shells =       5


  Total number atoms/shells =       5

  Dimensionality = 3               :  Bulk   



  Cartesian lattice vectors (Angstroms) :

       -2.504286    0.000000   10.443767
        1.252143   -2.168775   10.443767
        1.252143    2.168775   10.443767

  Cell parameters (Angstroms/Degrees):

  a =      10.7398    alpha =  23.3006
  b =      10.7398    beta  =  23.3006
  c =      10.7398    gamma =  23.3006

  Initial cell volume =         170.167643 Angs**3

  Temperature of configuration =  0.000     K 

  Pressure of configuration =         0.000 GPa 

  Fractional coordinates of asymmetric unit :

--------------------------------------------------------------------------------
   No.  Atomic       x           y          z         Charge      Occupancy
        Label      (Frac)      (Frac)     (Frac)        (e)         (Frac)  
--------------------------------------------------------------------------------
      1 Sb    c    0.396797    0.396797    0.396797      0.6200    1.000000    
      2 Sb    c    0.603203    0.603203    0.603203      0.6200    1.000000    
      3 Te1   c    0.000000    0.000000    0.000000     -0.5000    1.000000    
      4 Te2   c    0.784571    0.784571    0.784571     -0.3700    1.000000    
      5 Te2   c    0.215429    0.215429    0.215429     -0.3700    1.000000    
--------------------------------------------------------------------------------



********************************************************************************
*  Input for Configuration =   9                                               *
********************************************************************************

  Formula = Sb2Te3                                                      

  Number of irreducible atoms/shells =       5


  Total number atoms/shells =       5

  Dimensionality = 3               :  Bulk   



  Cartesian lattice vectors (Angstroms) :

       -2.504286    0.000000   10.443767
        1.252143   -2.168775   10.443767
        1.252143    2.168775   10.443767

  Cell parameters (Angstroms/Degrees):

  a =      10.7398    alpha =  23.3006
  b =      10.7398    beta  =  23.3006
  c =      10.7398    gamma =  23.3006

  Initial cell volume =         170.167643 Angs**3

  Temperature of configuration =  0.000     K 

  Pressure of configuration =         0.000 GPa 

  Fractional coordinates of asymmetric unit :

--------------------------------------------------------------------------------
   No.  Atomic       x           y          z         Charge      Occupancy
        Label      (Frac)      (Frac)     (Frac)        (e)         (Frac)  
--------------------------------------------------------------------------------
      1 Sb    c    0.400765    0.400765    0.400765      0.6200    1.000000    
      2 Sb    c    0.603203    0.603203    0.603203      0.6200    1.000000    
      3 Te1   c    0.000000    0.000000    0.000000     -0.5000    1.000000    
      4 Te2   c    0.784571    0.784571    0.784571     -0.3700    1.000000    
      5 Te2   c    0.215429    0.215429    0.215429     -0.3700    1.000000    
--------------------------------------------------------------------------------



********************************************************************************
*  Input for Configuration =  10                                               *
********************************************************************************

  Formula = Sb2Te3                                                      

  Number of irreducible atoms/shells =       5


  Total number atoms/shells =       5

  Dimensionality = 3               :  Bulk   



  Cartesian lattice vectors (Angstroms) :

       -2.504286    0.000000   10.443767
        1.252143   -2.168775   10.443767
        1.252143    2.168775   10.443767

  Cell parameters (Angstroms/Degrees):

  a =      10.7398    alpha =  23.3006
  b =      10.7398    beta  =  23.3006
  c =      10.7398    gamma =  23.3006

  Initial cell volume =         170.167643 Angs**3

  Temperature of configuration =  0.000     K 

  Pressure of configuration =         0.000 GPa 

  Fractional coordinates of asymmetric unit :

--------------------------------------------------------------------------------
   No.  Atomic       x           y          z         Charge      Occupancy
        Label      (Frac)      (Frac)     (Frac)        (e)         (Frac)  
--------------------------------------------------------------------------------
      1 Sb    c    0.404733    0.404733    0.404733      0.6200    1.000000    
      2 Sb    c    0.603203    0.603203    0.603203      0.6200    1.000000    
      3 Te1   c    0.000000    0.000000    0.000000     -0.5000    1.000000    
      4 Te2   c    0.784571    0.784571    0.784571     -0.3700    1.000000    
      5 Te2   c    0.215429    0.215429    0.215429     -0.3700    1.000000    
--------------------------------------------------------------------------------



********************************************************************************
*  Input for Configuration =  11                                               *
********************************************************************************

  Formula = Sb2Te3                                                      

  Number of irreducible atoms/shells =       5


  Total number atoms/shells =       5

  Dimensionality = 3               :  Bulk   



  Cartesian lattice vectors (Angstroms) :

       -2.504286    0.000000   10.443767
        1.252143   -2.168775   10.443767
        1.252143    2.168775   10.443767

  Cell parameters (Angstroms/Degrees):

  a =      10.7398    alpha =  23.3006
  b =      10.7398    beta  =  23.3006
  c =      10.7398    gamma =  23.3006

  Initial cell volume =         170.167643 Angs**3

  Temperature of configuration =  0.000     K 

  Pressure of configuration =         0.000 GPa 

  Fractional coordinates of asymmetric unit :

--------------------------------------------------------------------------------
   No.  Atomic       x           y          z         Charge      Occupancy
        Label      (Frac)      (Frac)     (Frac)        (e)         (Frac)  
--------------------------------------------------------------------------------
      1 Sb    c    0.408700    0.408700    0.408700      0.6200    1.000000    
      2 Sb    c    0.603203    0.603203    0.603203      0.6200    1.000000    
      3 Te1   c    0.000000    0.000000    0.000000     -0.5000    1.000000    
      4 Te2   c    0.784571    0.784571    0.784571     -0.3700    1.000000    
      5 Te2   c    0.215429    0.215429    0.215429     -0.3700    1.000000    
--------------------------------------------------------------------------------



********************************************************************************
*  Input for Configuration =  12                                               *
********************************************************************************

  Formula = Sb2Te3                                                      

  Number of irreducible atoms/shells =       5


  Total number atoms/shells =       5

  Dimensionality = 3               :  Bulk   



  Cartesian lattice vectors (Angstroms) :

       -2.504286    0.000000   10.443767
        1.252143   -2.168775   10.443767
        1.252143    2.168775   10.443767

  Cell parameters (Angstroms/Degrees):

  a =      10.7398    alpha =  23.3006
  b =      10.7398    beta  =  23.3006
  c =      10.7398    gamma =  23.3006

  Initial cell volume =         170.167643 Angs**3

  Temperature of configuration =  0.000     K 

  Pressure of configuration =         0.000 GPa 

  Fractional coordinates of asymmetric unit :

--------------------------------------------------------------------------------
   No.  Atomic       x           y          z         Charge      Occupancy
        Label      (Frac)      (Frac)     (Frac)        (e)         (Frac)  
--------------------------------------------------------------------------------
      1 Sb    c    0.412668    0.412668    0.412668      0.6200    1.000000    
      2 Sb    c    0.603203    0.603203    0.603203      0.6200    1.000000    
      3 Te1   c    0.000000    0.000000    0.000000     -0.5000    1.000000    
      4 Te2   c    0.784571    0.784571    0.784571     -0.3700    1.000000    
      5 Te2   c    0.215429    0.215429    0.215429     -0.3700    1.000000    
--------------------------------------------------------------------------------



********************************************************************************
*  Input for Configuration =  13                                               *
********************************************************************************

  Formula = Sb2Te3                                                      

  Number of irreducible atoms/shells =       5


  Total number atoms/shells =       5

  Dimensionality = 3               :  Bulk   



  Cartesian lattice vectors (Angstroms) :

       -2.504286    0.000000   10.443767
        1.252143   -2.168775   10.443767
        1.252143    2.168775   10.443767

  Cell parameters (Angstroms/Degrees):

  a =      10.7398    alpha =  23.3006
  b =      10.7398    beta  =  23.3006
  c =      10.7398    gamma =  23.3006

  Initial cell volume =         170.167643 Angs**3

  Temperature of configuration =  0.000     K 

  Pressure of configuration =         0.000 GPa 

  Fractional coordinates of asymmetric unit :

--------------------------------------------------------------------------------
   No.  Atomic       x           y          z         Charge      Occupancy
        Label      (Frac)      (Frac)     (Frac)        (e)         (Frac)  
--------------------------------------------------------------------------------
      1 Sb    c    0.416636    0.416636    0.416636      0.6200    1.000000    
      2 Sb    c    0.603203    0.603203    0.603203      0.6200    1.000000    
      3 Te1   c    0.000000    0.000000    0.000000     -0.5000    1.000000    
      4 Te2   c    0.784571    0.784571    0.784571     -0.3700    1.000000    
      5 Te2   c    0.215429    0.215429    0.215429     -0.3700    1.000000    
--------------------------------------------------------------------------------



********************************************************************************
*  Input for Configuration =  14                                               *
********************************************************************************

  Formula = Sb2Te3                                                      

  Number of irreducible atoms/shells =       5


  Total number atoms/shells =       5

  Dimensionality = 3               :  Bulk   



  Cartesian lattice vectors (Angstroms) :

       -2.504286    0.000000   10.443767
        1.252143   -2.168775   10.443767
        1.252143    2.168775   10.443767

  Cell parameters (Angstroms/Degrees):

  a =      10.7398    alpha =  23.3006
  b =      10.7398    beta  =  23.3006
  c =      10.7398    gamma =  23.3006

  Initial cell volume =         170.167643 Angs**3

  Temperature of configuration =  0.000     K 

  Pressure of configuration =         0.000 GPa 

  Fractional coordinates of asymmetric unit :

--------------------------------------------------------------------------------
   No.  Atomic       x           y          z         Charge      Occupancy
        Label      (Frac)      (Frac)     (Frac)        (e)         (Frac)  
--------------------------------------------------------------------------------
      1 Sb    c    0.420604    0.420604    0.420604      0.6200    1.000000    
      2 Sb    c    0.603203    0.603203    0.603203      0.6200    1.000000    
      3 Te1   c    0.000000    0.000000    0.000000     -0.5000    1.000000    
      4 Te2   c    0.784571    0.784571    0.784571     -0.3700    1.000000    
      5 Te2   c    0.215429    0.215429    0.215429     -0.3700    1.000000    
--------------------------------------------------------------------------------



********************************************************************************
*  Input for Configuration =  15                                               *
********************************************************************************

  Formula = Sb2Te3                                                      

  Number of irreducible atoms/shells =       5


  Total number atoms/shells =       5

  Dimensionality = 3               :  Bulk   



  Cartesian lattice vectors (Angstroms) :

       -2.504286    0.000000   10.443767
        1.252143   -2.168775   10.443767
        1.252143    2.168775   10.443767

  Cell parameters (Angstroms/Degrees):

  a =      10.7398    alpha =  23.3006
  b =      10.7398    beta  =  23.3006
  c =      10.7398    gamma =  23.3006

  Initial cell volume =         170.167643 Angs**3

  Temperature of configuration =  0.000     K 

  Pressure of configuration =         0.000 GPa 

  Fractional coordinates of asymmetric unit :

--------------------------------------------------------------------------------
   No.  Atomic       x           y          z         Charge      Occupancy
        Label      (Frac)      (Frac)     (Frac)        (e)         (Frac)  
--------------------------------------------------------------------------------
      1 Sb    c    0.424572    0.424572    0.424572      0.6200    1.000000    
      2 Sb    c    0.603203    0.603203    0.603203      0.6200    1.000000    
      3 Te1   c    0.000000    0.000000    0.000000     -0.5000    1.000000    
      4 Te2   c    0.784571    0.784571    0.784571     -0.3700    1.000000    
      5 Te2   c    0.215429    0.215429    0.215429     -0.3700    1.000000    
--------------------------------------------------------------------------------



********************************************************************************
*  Input for Configuration =  16                                               *
********************************************************************************

  Formula = Sb2Te3                                                      

  Number of irreducible atoms/shells =       5


  Total number atoms/shells =       5

  Dimensionality = 3               :  Bulk   



  Cartesian lattice vectors (Angstroms) :

       -2.504286    0.000000   10.443767
        1.252143   -2.168775   10.443767
        1.252143    2.168775   10.443767

  Cell parameters (Angstroms/Degrees):

  a =      10.7398    alpha =  23.3006
  b =      10.7398    beta  =  23.3006
  c =      10.7398    gamma =  23.3006

  Initial cell volume =         170.167643 Angs**3

  Temperature of configuration =  0.000     K 

  Pressure of configuration =         0.000 GPa 

  Fractional coordinates of asymmetric unit :

--------------------------------------------------------------------------------
   No.  Atomic       x           y          z         Charge      Occupancy
        Label      (Frac)      (Frac)     (Frac)        (e)         (Frac)  
--------------------------------------------------------------------------------
      1 Sb    c    0.396797    0.396797    0.396797      0.6200    1.000000    
      2 Sb    c    0.560979    0.560979    0.560979      0.6200    1.000000    
      3 Te1   c    0.000000    0.000000    0.000000     -0.5000    1.000000    
      4 Te2   c    0.784571    0.784571    0.784571     -0.3700    1.000000    
      5 Te2   c    0.215429    0.215429    0.215429     -0.3700    1.000000    
--------------------------------------------------------------------------------



********************************************************************************
*  Input for Configuration =  17                                               *
********************************************************************************

  Formula = Sb2Te3                                                      

  Number of irreducible atoms/shells =       5


  Total number atoms/shells =       5

  Dimensionality = 3               :  Bulk   



  Cartesian lattice vectors (Angstroms) :

       -2.504286    0.000000   10.443767
        1.252143   -2.168775   10.443767
        1.252143    2.168775   10.443767

  Cell parameters (Angstroms/Degrees):

  a =      10.7398    alpha =  23.3006
  b =      10.7398    beta  =  23.3006
  c =      10.7398    gamma =  23.3006

  Initial cell volume =         170.167643 Angs**3

  Temperature of configuration =  0.000     K 

  Pressure of configuration =         0.000 GPa 

  Fractional coordinates of asymmetric unit :

--------------------------------------------------------------------------------
   No.  Atomic       x           y          z         Charge      Occupancy
        Label      (Frac)      (Frac)     (Frac)        (e)         (Frac)  
--------------------------------------------------------------------------------
      1 Sb    c    0.396797    0.396797    0.396797      0.6200    1.000000    
      2 Sb    c    0.567011    0.567011    0.567011      0.6200    1.000000    
      3 Te1   c    0.000000    0.000000    0.000000     -0.5000    1.000000    
      4 Te2   c    0.784571    0.784571    0.784571     -0.3700    1.000000    
      5 Te2   c    0.215429    0.215429    0.215429     -0.3700    1.000000    
--------------------------------------------------------------------------------



********************************************************************************
*  Input for Configuration =  18                                               *
********************************************************************************

  Formula = Sb2Te3                                                      

  Number of irreducible atoms/shells =       5


  Total number atoms/shells =       5

  Dimensionality = 3               :  Bulk   



  Cartesian lattice vectors (Angstroms) :

       -2.504286    0.000000   10.443767
        1.252143   -2.168775   10.443767
        1.252143    2.168775   10.443767

  Cell parameters (Angstroms/Degrees):

  a =      10.7398    alpha =  23.3006
  b =      10.7398    beta  =  23.3006
  c =      10.7398    gamma =  23.3006

  Initial cell volume =         170.167643 Angs**3

  Temperature of configuration =  0.000     K 

  Pressure of configuration =         0.000 GPa 

  Fractional coordinates of asymmetric unit :

--------------------------------------------------------------------------------
   No.  Atomic       x           y          z         Charge      Occupancy
        Label      (Frac)      (Frac)     (Frac)        (e)         (Frac)  
--------------------------------------------------------------------------------
      1 Sb    c    0.396797    0.396797    0.396797      0.6200    1.000000    
      2 Sb    c    0.573043    0.573043    0.573043      0.6200    1.000000    
      3 Te1   c    0.000000    0.000000    0.000000     -0.5000    1.000000    
      4 Te2   c    0.784571    0.784571    0.784571     -0.3700    1.000000    
      5 Te2   c    0.215429    0.215429    0.215429     -0.3700    1.000000    
--------------------------------------------------------------------------------



********************************************************************************
*  Input for Configuration =  19                                               *
********************************************************************************

  Formula = Sb2Te3                                                      

  Number of irreducible atoms/shells =       5


  Total number atoms/shells =       5

  Dimensionality = 3               :  Bulk   



  Cartesian lattice vectors (Angstroms) :

       -2.504286    0.000000   10.443767
        1.252143   -2.168775   10.443767
        1.252143    2.168775   10.443767

  Cell parameters (Angstroms/Degrees):

  a =      10.7398    alpha =  23.3006
  b =      10.7398    beta  =  23.3006
  c =      10.7398    gamma =  23.3006

  Initial cell volume =         170.167643 Angs**3

  Temperature of configuration =  0.000     K 

  Pressure of configuration =         0.000 GPa 

  Fractional coordinates of asymmetric unit :

--------------------------------------------------------------------------------
   No.  Atomic       x           y          z         Charge      Occupancy
        Label      (Frac)      (Frac)     (Frac)        (e)         (Frac)  
--------------------------------------------------------------------------------
      1 Sb    c    0.396797    0.396797    0.396797      0.6200    1.000000    
      2 Sb    c    0.579075    0.579075    0.579075      0.6200    1.000000    
      3 Te1   c    0.000000    0.000000    0.000000     -0.5000    1.000000    
      4 Te2   c    0.784571    0.784571    0.784571     -0.3700    1.000000    
      5 Te2   c    0.215429    0.215429    0.215429     -0.3700    1.000000    
--------------------------------------------------------------------------------



********************************************************************************
*  Input for Configuration =  20                                               *
********************************************************************************

  Formula = Sb2Te3                                                      

  Number of irreducible atoms/shells =       5


  Total number atoms/shells =       5

  Dimensionality = 3               :  Bulk   



  Cartesian lattice vectors (Angstroms) :

       -2.504286    0.000000   10.443767
        1.252143   -2.168775   10.443767
        1.252143    2.168775   10.443767

  Cell parameters (Angstroms/Degrees):

  a =      10.7398    alpha =  23.3006
  b =      10.7398    beta  =  23.3006
  c =      10.7398    gamma =  23.3006

  Initial cell volume =         170.167643 Angs**3

  Temperature of configuration =  0.000     K 

  Pressure of configuration =         0.000 GPa 

  Fractional coordinates of asymmetric unit :

--------------------------------------------------------------------------------
   No.  Atomic       x           y          z         Charge      Occupancy
        Label      (Frac)      (Frac)     (Frac)        (e)         (Frac)  
--------------------------------------------------------------------------------
      1 Sb    c    0.396797    0.396797    0.396797      0.6200    1.000000    
      2 Sb    c    0.585107    0.585107    0.585107      0.6200    1.000000    
      3 Te1   c    0.000000    0.000000    0.000000     -0.5000    1.000000    
      4 Te2   c    0.784571    0.784571    0.784571     -0.3700    1.000000    
      5 Te2   c    0.215429    0.215429    0.215429     -0.3700    1.000000    
--------------------------------------------------------------------------------



********************************************************************************
*  Input for Configuration =  21                                               *
********************************************************************************

  Formula = Sb2Te3                                                      

  Number of irreducible atoms/shells =       5


  Total number atoms/shells =       5

  Dimensionality = 3               :  Bulk   



  Cartesian lattice vectors (Angstroms) :

       -2.504286    0.000000   10.443767
        1.252143   -2.168775   10.443767
        1.252143    2.168775   10.443767

  Cell parameters (Angstroms/Degrees):

  a =      10.7398    alpha =  23.3006
  b =      10.7398    beta  =  23.3006
  c =      10.7398    gamma =  23.3006

  Initial cell volume =         170.167643 Angs**3

  Temperature of configuration =  0.000     K 

  Pressure of configuration =         0.000 GPa 

  Fractional coordinates of asymmetric unit :

--------------------------------------------------------------------------------
   No.  Atomic       x           y          z         Charge      Occupancy
        Label      (Frac)      (Frac)     (Frac)        (e)         (Frac)  
--------------------------------------------------------------------------------
      1 Sb    c    0.396797    0.396797    0.396797      0.6200    1.000000    
      2 Sb    c    0.591139    0.591139    0.591139      0.6200    1.000000    
      3 Te1   c    0.000000    0.000000    0.000000     -0.5000    1.000000    
      4 Te2   c    0.784571    0.784571    0.784571     -0.3700    1.000000    
      5 Te2   c    0.215429    0.215429    0.215429     -0.3700    1.000000    
--------------------------------------------------------------------------------



********************************************************************************
*  Input for Configuration =  22                                               *
********************************************************************************

  Formula = Sb2Te3                                                      

  Number of irreducible atoms/shells =       5


  Total number atoms/shells =       5

  Dimensionality = 3               :  Bulk   



  Cartesian lattice vectors (Angstroms) :

       -2.504286    0.000000   10.443767
        1.252143   -2.168775   10.443767
        1.252143    2.168775   10.443767

  Cell parameters (Angstroms/Degrees):

  a =      10.7398    alpha =  23.3006
  b =      10.7398    beta  =  23.3006
  c =      10.7398    gamma =  23.3006

  Initial cell volume =         170.167643 Angs**3

  Temperature of configuration =  0.000     K 

  Pressure of configuration =         0.000 GPa 

  Fractional coordinates of asymmetric unit :

--------------------------------------------------------------------------------
   No.  Atomic       x           y          z         Charge      Occupancy
        Label      (Frac)      (Frac)     (Frac)        (e)         (Frac)  
--------------------------------------------------------------------------------
      1 Sb    c    0.396797    0.396797    0.396797      0.6200    1.000000    
      2 Sb    c    0.597171    0.597171    0.597171      0.6200    1.000000    
      3 Te1   c    0.000000    0.000000    0.000000     -0.5000    1.000000    
      4 Te2   c    0.784571    0.784571    0.784571     -0.3700    1.000000    
      5 Te2   c    0.215429    0.215429    0.215429     -0.3700    1.000000    
--------------------------------------------------------------------------------



********************************************************************************
*  Input for Configuration =  23                                               *
********************************************************************************

  Formula = Sb2Te3                                                      

  Number of irreducible atoms/shells =       5


  Total number atoms/shells =       5

  Dimensionality = 3               :  Bulk   



  Cartesian lattice vectors (Angstroms) :

       -2.504286    0.000000   10.443767
        1.252143   -2.168775   10.443767
        1.252143    2.168775   10.443767

  Cell parameters (Angstroms/Degrees):

  a =      10.7398    alpha =  23.3006
  b =      10.7398    beta  =  23.3006
  c =      10.7398    gamma =  23.3006

  Initial cell volume =         170.167643 Angs**3

  Temperature of configuration =  0.000     K 

  Pressure of configuration =         0.000 GPa 

  Fractional coordinates of asymmetric unit :

--------------------------------------------------------------------------------
   No.  Atomic       x           y          z         Charge      Occupancy
        Label      (Frac)      (Frac)     (Frac)        (e)         (Frac)  
--------------------------------------------------------------------------------
      1 Sb    c    0.396797    0.396797    0.396797      0.6200    1.000000    
      2 Sb    c    0.603203    0.603203    0.603203      0.6200    1.000000    
      3 Te1   c    0.000000    0.000000    0.000000     -0.5000    1.000000    
      4 Te2   c    0.784571    0.784571    0.784571     -0.3700    1.000000    
      5 Te2   c    0.215429    0.215429    0.215429     -0.3700    1.000000    
--------------------------------------------------------------------------------



********************************************************************************
*  Input for Configuration =  24                                               *
********************************************************************************

  Formula = Sb2Te3                                                      

  Number of irreducible atoms/shells =       5


  Total number atoms/shells =       5

  Dimensionality = 3               :  Bulk   



  Cartesian lattice vectors (Angstroms) :

       -2.504286    0.000000   10.443767
        1.252143   -2.168775   10.443767
        1.252143    2.168775   10.443767

  Cell parameters (Angstroms/Degrees):

  a =      10.7398    alpha =  23.3006
  b =      10.7398    beta  =  23.3006
  c =      10.7398    gamma =  23.3006

  Initial cell volume =         170.167643 Angs**3

  Temperature of configuration =  0.000     K 

  Pressure of configuration =         0.000 GPa 

  Fractional coordinates of asymmetric unit :

--------------------------------------------------------------------------------
   No.  Atomic       x           y          z         Charge      Occupancy
        Label      (Frac)      (Frac)     (Frac)        (e)         (Frac)  
--------------------------------------------------------------------------------
      1 Sb    c    0.396797    0.396797    0.396797      0.6200    1.000000    
      2 Sb    c    0.609235    0.609235    0.609235      0.6200    1.000000    
      3 Te1   c    0.000000    0.000000    0.000000     -0.5000    1.000000    
      4 Te2   c    0.784571    0.784571    0.784571     -0.3700    1.000000    
      5 Te2   c    0.215429    0.215429    0.215429     -0.3700    1.000000    
--------------------------------------------------------------------------------



********************************************************************************
*  Input for Configuration =  25                                               *
********************************************************************************

  Formula = Sb2Te3                                                      

  Number of irreducible atoms/shells =       5


  Total number atoms/shells =       5

  Dimensionality = 3               :  Bulk   



  Cartesian lattice vectors (Angstroms) :

       -2.504286    0.000000   10.443767
        1.252143   -2.168775   10.443767
        1.252143    2.168775   10.443767

  Cell parameters (Angstroms/Degrees):

  a =      10.7398    alpha =  23.3006
  b =      10.7398    beta  =  23.3006
  c =      10.7398    gamma =  23.3006

  Initial cell volume =         170.167643 Angs**3

  Temperature of configuration =  0.000     K 

  Pressure of configuration =         0.000 GPa 

  Fractional coordinates of asymmetric unit :

--------------------------------------------------------------------------------
   No.  Atomic       x           y          z         Charge      Occupancy
        Label      (Frac)      (Frac)     (Frac)        (e)         (Frac)  
--------------------------------------------------------------------------------
      1 Sb    c    0.396797    0.396797    0.396797      0.6200    1.000000    
      2 Sb    c    0.615267    0.615267    0.615267      0.6200    1.000000    
      3 Te1   c    0.000000    0.000000    0.000000     -0.5000    1.000000    
      4 Te2   c    0.784571    0.784571    0.784571     -0.3700    1.000000    
      5 Te2   c    0.215429    0.215429    0.215429     -0.3700    1.000000    
--------------------------------------------------------------------------------



********************************************************************************
*  Input for Configuration =  26                                               *
********************************************************************************

  Formula = Sb2Te3                                                      

  Number of irreducible atoms/shells =       5


  Total number atoms/shells =       5

  Dimensionality = 3               :  Bulk   



  Cartesian lattice vectors (Angstroms) :

       -2.504286    0.000000   10.443767
        1.252143   -2.168775   10.443767
        1.252143    2.168775   10.443767

  Cell parameters (Angstroms/Degrees):

  a =      10.7398    alpha =  23.3006
  b =      10.7398    beta  =  23.3006
  c =      10.7398    gamma =  23.3006

  Initial cell volume =         170.167643 Angs**3

  Temperature of configuration =  0.000     K 

  Pressure of configuration =         0.000 GPa 

  Fractional coordinates of asymmetric unit :

--------------------------------------------------------------------------------
   No.  Atomic       x           y          z         Charge      Occupancy
        Label      (Frac)      (Frac)     (Frac)        (e)         (Frac)  
--------------------------------------------------------------------------------
      1 Sb    c    0.396797    0.396797    0.396797      0.6200    1.000000    
      2 Sb    c    0.621300    0.621300    0.621300      0.6200    1.000000    
      3 Te1   c    0.000000    0.000000    0.000000     -0.5000    1.000000    
      4 Te2   c    0.784571    0.784571    0.784571     -0.3700    1.000000    
      5 Te2   c    0.215429    0.215429    0.215429     -0.3700    1.000000    
--------------------------------------------------------------------------------



********************************************************************************
*  Input for Configuration =  27                                               *
********************************************************************************

  Formula = Sb2Te3                                                      

  Number of irreducible atoms/shells =       5


  Total number atoms/shells =       5

  Dimensionality = 3               :  Bulk   



  Cartesian lattice vectors (Angstroms) :

       -2.504286    0.000000   10.443767
        1.252143   -2.168775   10.443767
        1.252143    2.168775   10.443767

  Cell parameters (Angstroms/Degrees):

  a =      10.7398    alpha =  23.3006
  b =      10.7398    beta  =  23.3006
  c =      10.7398    gamma =  23.3006

  Initial cell volume =         170.167643 Angs**3

  Temperature of configuration =  0.000     K 

  Pressure of configuration =         0.000 GPa 

  Fractional coordinates of asymmetric unit :

--------------------------------------------------------------------------------
   No.  Atomic       x           y          z         Charge      Occupancy
        Label      (Frac)      (Frac)     (Frac)        (e)         (Frac)  
--------------------------------------------------------------------------------
      1 Sb    c    0.396797    0.396797    0.396797      0.6200    1.000000    
      2 Sb    c    0.627332    0.627332    0.627332      0.6200    1.000000    
      3 Te1   c    0.000000    0.000000    0.000000     -0.5000    1.000000    
      4 Te2   c    0.784571    0.784571    0.784571     -0.3700    1.000000    
      5 Te2   c    0.215429    0.215429    0.215429     -0.3700    1.000000    
--------------------------------------------------------------------------------



********************************************************************************
*  Input for Configuration =  28                                               *
********************************************************************************

  Formula = Sb2Te3                                                      

  Number of irreducible atoms/shells =       5


  Total number atoms/shells =       5

  Dimensionality = 3               :  Bulk   



  Cartesian lattice vectors (Angstroms) :

       -2.504286    0.000000   10.443767
        1.252143   -2.168775   10.443767
        1.252143    2.168775   10.443767

  Cell parameters (Angstroms/Degrees):

  a =      10.7398    alpha =  23.3006
  b =      10.7398    beta  =  23.3006
  c =      10.7398    gamma =  23.3006

  Initial cell volume =         170.167643 Angs**3

  Temperature of configuration =  0.000     K 

  Pressure of configuration =         0.000 GPa 

  Fractional coordinates of asymmetric unit :

--------------------------------------------------------------------------------
   No.  Atomic       x           y          z         Charge      Occupancy
        Label      (Frac)      (Frac)     (Frac)        (e)         (Frac)  
--------------------------------------------------------------------------------
      1 Sb    c    0.396797    0.396797    0.396797      0.6200    1.000000    
      2 Sb    c    0.633364    0.633364    0.633364      0.6200    1.000000    
      3 Te1   c    0.000000    0.000000    0.000000     -0.5000    1.000000    
      4 Te2   c    0.784571    0.784571    0.784571     -0.3700    1.000000    
      5 Te2   c    0.215429    0.215429    0.215429     -0.3700    1.000000    
--------------------------------------------------------------------------------



********************************************************************************
*  Input for Configuration =  29                                               *
********************************************************************************

  Formula = Sb2Te3                                                      

  Number of irreducible atoms/shells =       5


  Total number atoms/shells =       5

  Dimensionality = 3               :  Bulk   



  Cartesian lattice vectors (Angstroms) :

       -2.504286    0.000000   10.443767
        1.252143   -2.168775   10.443767
        1.252143    2.168775   10.443767

  Cell parameters (Angstroms/Degrees):

  a =      10.7398    alpha =  23.3006
  b =      10.7398    beta  =  23.3006
  c =      10.7398    gamma =  23.3006

  Initial cell volume =         170.167643 Angs**3

  Temperature of configuration =  0.000     K 

  Pressure of configuration =         0.000 GPa 

  Fractional coordinates of asymmetric unit :

--------------------------------------------------------------------------------
   No.  Atomic       x           y          z         Charge      Occupancy
        Label      (Frac)      (Frac)     (Frac)        (e)         (Frac)  
--------------------------------------------------------------------------------
      1 Sb    c    0.396797    0.396797    0.396797      0.6200    1.000000    
      2 Sb    c    0.639396    0.639396    0.639396      0.6200    1.000000    
      3 Te1   c    0.000000    0.000000    0.000000     -0.5000    1.000000    
      4 Te2   c    0.784571    0.784571    0.784571     -0.3700    1.000000    
      5 Te2   c    0.215429    0.215429    0.215429     -0.3700    1.000000    
--------------------------------------------------------------------------------



********************************************************************************
*  Input for Configuration =  30                                               *
********************************************************************************

  Formula = Sb2Te3                                                      

  Number of irreducible atoms/shells =       5


  Total number atoms/shells =       5

  Dimensionality = 3               :  Bulk   



  Cartesian lattice vectors (Angstroms) :

       -2.504286    0.000000   10.443767
        1.252143   -2.168775   10.443767
        1.252143    2.168775   10.443767

  Cell parameters (Angstroms/Degrees):

  a =      10.7398    alpha =  23.3006
  b =      10.7398    beta  =  23.3006
  c =      10.7398    gamma =  23.3006

  Initial cell volume =         170.167643 Angs**3

  Temperature of configuration =  0.000     K 

  Pressure of configuration =         0.000 GPa 

  Fractional coordinates of asymmetric unit :

--------------------------------------------------------------------------------
   No.  Atomic       x           y          z         Charge      Occupancy
        Label      (Frac)      (Frac)     (Frac)        (e)         (Frac)  
--------------------------------------------------------------------------------
      1 Sb    c    0.396797    0.396797    0.396797      0.6200    1.000000    
      2 Sb    c    0.645428    0.645428    0.645428      0.6200    1.000000    
      3 Te1   c    0.000000    0.000000    0.000000     -0.5000    1.000000    
      4 Te2   c    0.784571    0.784571    0.784571     -0.3700    1.000000    
      5 Te2   c    0.215429    0.215429    0.215429     -0.3700    1.000000    
--------------------------------------------------------------------------------



********************************************************************************
*  Input for Configuration =  31                                               *
********************************************************************************

  Formula = Sb2Te3                                                      

  Number of irreducible atoms/shells =       5


  Total number atoms/shells =       5

  Dimensionality = 3               :  Bulk   



  Cartesian lattice vectors (Angstroms) :

       -2.504286    0.000000   10.443767
        1.252143   -2.168775   10.443767
        1.252143    2.168775   10.443767

  Cell parameters (Angstroms/Degrees):

  a =      10.7398    alpha =  23.3006
  b =      10.7398    beta  =  23.3006
  c =      10.7398    gamma =  23.3006

  Initial cell volume =         170.167643 Angs**3

  Temperature of configuration =  0.000     K 

  Pressure of configuration =         0.000 GPa 

  Fractional coordinates of asymmetric unit :

--------------------------------------------------------------------------------
   No.  Atomic       x           y          z         Charge      Occupancy
        Label      (Frac)      (Frac)     (Frac)        (e)         (Frac)  
--------------------------------------------------------------------------------
      1 Sb    c    0.396797    0.396797    0.396797      0.6200    1.000000    
      2 Sb    c    0.603203    0.603203    0.603203      0.6200    1.000000    
      3 Te1   c    0.930000    0.930000    0.930000     -0.5000    1.000000    
      4 Te2   c    0.784571    0.784571    0.784571     -0.3700    1.000000    
      5 Te2   c    0.215429    0.215429    0.215429     -0.3700    1.000000    
--------------------------------------------------------------------------------



********************************************************************************
*  Input for Configuration =  32                                               *
********************************************************************************

  Formula = Sb2Te3                                                      

  Number of irreducible atoms/shells =       5


  Total number atoms/shells =       5

  Dimensionality = 3               :  Bulk   



  Cartesian lattice vectors (Angstroms) :

       -2.504286    0.000000   10.443767
        1.252143   -2.168775   10.443767
        1.252143    2.168775   10.443767

  Cell parameters (Angstroms/Degrees):

  a =      10.7398    alpha =  23.3006
  b =      10.7398    beta  =  23.3006
  c =      10.7398    gamma =  23.3006

  Initial cell volume =         170.167643 Angs**3

  Temperature of configuration =  0.000     K 

  Pressure of configuration =         0.000 GPa 

  Fractional coordinates of asymmetric unit :

--------------------------------------------------------------------------------
   No.  Atomic       x           y          z         Charge      Occupancy
        Label      (Frac)      (Frac)     (Frac)        (e)         (Frac)  
--------------------------------------------------------------------------------
      1 Sb    c    0.396797    0.396797    0.396797      0.6200    1.000000    
      2 Sb    c    0.603203    0.603203    0.603203      0.6200    1.000000    
      3 Te1   c    0.940000    0.940000    0.940000     -0.5000    1.000000    
      4 Te2   c    0.784571    0.784571    0.784571     -0.3700    1.000000    
      5 Te2   c    0.215429    0.215429    0.215429     -0.3700    1.000000    
--------------------------------------------------------------------------------



********************************************************************************
*  Input for Configuration =  33                                               *
********************************************************************************

  Formula = Sb2Te3                                                      

  Number of irreducible atoms/shells =       5


  Total number atoms/shells =       5

  Dimensionality = 3               :  Bulk   



  Cartesian lattice vectors (Angstroms) :

       -2.504286    0.000000   10.443767
        1.252143   -2.168775   10.443767
        1.252143    2.168775   10.443767

  Cell parameters (Angstroms/Degrees):

  a =      10.7398    alpha =  23.3006
  b =      10.7398    beta  =  23.3006
  c =      10.7398    gamma =  23.3006

  Initial cell volume =         170.167643 Angs**3

  Temperature of configuration =  0.000     K 

  Pressure of configuration =         0.000 GPa 

  Fractional coordinates of asymmetric unit :

--------------------------------------------------------------------------------
   No.  Atomic       x           y          z         Charge      Occupancy
        Label      (Frac)      (Frac)     (Frac)        (e)         (Frac)  
--------------------------------------------------------------------------------
      1 Sb    c    0.396797    0.396797    0.396797      0.6200    1.000000    
      2 Sb    c    0.603203    0.603203    0.603203      0.6200    1.000000    
      3 Te1   c    0.950000    0.950000    0.950000     -0.5000    1.000000    
      4 Te2   c    0.784571    0.784571    0.784571     -0.3700    1.000000    
      5 Te2   c    0.215429    0.215429    0.215429     -0.3700    1.000000    
--------------------------------------------------------------------------------



********************************************************************************
*  Input for Configuration =  34                                               *
********************************************************************************

  Formula = Sb2Te3                                                      

  Number of irreducible atoms/shells =       5


  Total number atoms/shells =       5

  Dimensionality = 3               :  Bulk   



  Cartesian lattice vectors (Angstroms) :

       -2.504286    0.000000   10.443767
        1.252143   -2.168775   10.443767
        1.252143    2.168775   10.443767

  Cell parameters (Angstroms/Degrees):

  a =      10.7398    alpha =  23.3006
  b =      10.7398    beta  =  23.3006
  c =      10.7398    gamma =  23.3006

  Initial cell volume =         170.167643 Angs**3

  Temperature of configuration =  0.000     K 

  Pressure of configuration =         0.000 GPa 

  Fractional coordinates of asymmetric unit :

--------------------------------------------------------------------------------
   No.  Atomic       x           y          z         Charge      Occupancy
        Label      (Frac)      (Frac)     (Frac)        (e)         (Frac)  
--------------------------------------------------------------------------------
      1 Sb    c    0.396797    0.396797    0.396797      0.6200    1.000000    
      2 Sb    c    0.603203    0.603203    0.603203      0.6200    1.000000    
      3 Te1   c    0.960000    0.960000    0.960000     -0.5000    1.000000    
      4 Te2   c    0.784571    0.784571    0.784571     -0.3700    1.000000    
      5 Te2   c    0.215429    0.215429    0.215429     -0.3700    1.000000    
--------------------------------------------------------------------------------



********************************************************************************
*  Input for Configuration =  35                                               *
********************************************************************************

  Formula = Sb2Te3                                                      

  Number of irreducible atoms/shells =       5


  Total number atoms/shells =       5

  Dimensionality = 3               :  Bulk   



  Cartesian lattice vectors (Angstroms) :

       -2.504286    0.000000   10.443767
        1.252143   -2.168775   10.443767
        1.252143    2.168775   10.443767

  Cell parameters (Angstroms/Degrees):

  a =      10.7398    alpha =  23.3006
  b =      10.7398    beta  =  23.3006
  c =      10.7398    gamma =  23.3006

  Initial cell volume =         170.167643 Angs**3

  Temperature of configuration =  0.000     K 

  Pressure of configuration =         0.000 GPa 

  Fractional coordinates of asymmetric unit :

--------------------------------------------------------------------------------
   No.  Atomic       x           y          z         Charge      Occupancy
        Label      (Frac)      (Frac)     (Frac)        (e)         (Frac)  
--------------------------------------------------------------------------------
      1 Sb    c    0.396797    0.396797    0.396797      0.6200    1.000000    
      2 Sb    c    0.603203    0.603203    0.603203      0.6200    1.000000    
      3 Te1   c    0.970000    0.970000    0.970000     -0.5000    1.000000    
      4 Te2   c    0.784571    0.784571    0.784571     -0.3700    1.000000    
      5 Te2   c    0.215429    0.215429    0.215429     -0.3700    1.000000    
--------------------------------------------------------------------------------



********************************************************************************
*  Input for Configuration =  36                                               *
********************************************************************************

  Formula = Sb2Te3                                                      

  Number of irreducible atoms/shells =       5


  Total number atoms/shells =       5

  Dimensionality = 3               :  Bulk   



  Cartesian lattice vectors (Angstroms) :

       -2.504286    0.000000   10.443767
        1.252143   -2.168775   10.443767
        1.252143    2.168775   10.443767

  Cell parameters (Angstroms/Degrees):

  a =      10.7398    alpha =  23.3006
  b =      10.7398    beta  =  23.3006
  c =      10.7398    gamma =  23.3006

  Initial cell volume =         170.167643 Angs**3

  Temperature of configuration =  0.000     K 

  Pressure of configuration =         0.000 GPa 

  Fractional coordinates of asymmetric unit :

--------------------------------------------------------------------------------
   No.  Atomic       x           y          z         Charge      Occupancy
        Label      (Frac)      (Frac)     (Frac)        (e)         (Frac)  
--------------------------------------------------------------------------------
      1 Sb    c    0.396797    0.396797    0.396797      0.6200    1.000000    
      2 Sb    c    0.603203    0.603203    0.603203      0.6200    1.000000    
      3 Te1   c    0.980000    0.980000    0.980000     -0.5000    1.000000    
      4 Te2   c    0.784571    0.784571    0.784571     -0.3700    1.000000    
      5 Te2   c    0.215429    0.215429    0.215429     -0.3700    1.000000    
--------------------------------------------------------------------------------



********************************************************************************
*  Input for Configuration =  37                                               *
********************************************************************************

  Formula = Sb2Te3                                                      

  Number of irreducible atoms/shells =       5


  Total number atoms/shells =       5

  Dimensionality = 3               :  Bulk   



  Cartesian lattice vectors (Angstroms) :

       -2.504286    0.000000   10.443767
        1.252143   -2.168775   10.443767
        1.252143    2.168775   10.443767

  Cell parameters (Angstroms/Degrees):

  a =      10.7398    alpha =  23.3006
  b =      10.7398    beta  =  23.3006
  c =      10.7398    gamma =  23.3006

  Initial cell volume =         170.167643 Angs**3

  Temperature of configuration =  0.000     K 

  Pressure of configuration =         0.000 GPa 

  Fractional coordinates of asymmetric unit :

--------------------------------------------------------------------------------
   No.  Atomic       x           y          z         Charge      Occupancy
        Label      (Frac)      (Frac)     (Frac)        (e)         (Frac)  
--------------------------------------------------------------------------------
      1 Sb    c    0.396797    0.396797    0.396797      0.6200    1.000000    
      2 Sb    c    0.603203    0.603203    0.603203      0.6200    1.000000    
      3 Te1   c    0.990000    0.990000    0.990000     -0.5000    1.000000    
      4 Te2   c    0.784571    0.784571    0.784571     -0.3700    1.000000    
      5 Te2   c    0.215429    0.215429    0.215429     -0.3700    1.000000    
--------------------------------------------------------------------------------



********************************************************************************
*  Input for Configuration =  38                                               *
********************************************************************************

  Formula = Sb2Te3                                                      

  Number of irreducible atoms/shells =       5


  Total number atoms/shells =       5

  Dimensionality = 3               :  Bulk   



  Cartesian lattice vectors (Angstroms) :

       -2.504286    0.000000   10.443767
        1.252143   -2.168775   10.443767
        1.252143    2.168775   10.443767

  Cell parameters (Angstroms/Degrees):

  a =      10.7398    alpha =  23.3006
  b =      10.7398    beta  =  23.3006
  c =      10.7398    gamma =  23.3006

  Initial cell volume =         170.167643 Angs**3

  Temperature of configuration =  0.000     K 

  Pressure of configuration =         0.000 GPa 

  Fractional coordinates of asymmetric unit :

--------------------------------------------------------------------------------
   No.  Atomic       x           y          z         Charge      Occupancy
        Label      (Frac)      (Frac)     (Frac)        (e)         (Frac)  
--------------------------------------------------------------------------------
      1 Sb    c    0.396797    0.396797    0.396797      0.6200    1.000000    
      2 Sb    c    0.603203    0.603203    0.603203      0.6200    1.000000    
      3 Te1   c    0.000000    0.000000    0.000000     -0.5000    1.000000    
      4 Te2   c    0.784571    0.784571    0.784571     -0.3700    1.000000    
      5 Te2   c    0.215429    0.215429    0.215429     -0.3700    1.000000    
--------------------------------------------------------------------------------



********************************************************************************
*  Input for Configuration =  39                                               *
********************************************************************************

  Formula = Sb2Te3                                                      

  Number of irreducible atoms/shells =       5


  Total number atoms/shells =       5

  Dimensionality = 3               :  Bulk   



  Cartesian lattice vectors (Angstroms) :

       -2.504286    0.000000   10.443767
        1.252143   -2.168775   10.443767
        1.252143    2.168775   10.443767

  Cell parameters (Angstroms/Degrees):

  a =      10.7398    alpha =  23.3006
  b =      10.7398    beta  =  23.3006
  c =      10.7398    gamma =  23.3006

  Initial cell volume =         170.167643 Angs**3

  Temperature of configuration =  0.000     K 

  Pressure of configuration =         0.000 GPa 

  Fractional coordinates of asymmetric unit :

--------------------------------------------------------------------------------
   No.  Atomic       x           y          z         Charge      Occupancy
        Label      (Frac)      (Frac)     (Frac)        (e)         (Frac)  
--------------------------------------------------------------------------------
      1 Sb    c    0.396797    0.396797    0.396797      0.6200    1.000000    
      2 Sb    c    0.603203    0.603203    0.603203      0.6200    1.000000    
      3 Te1   c    0.010000    0.010000    0.010000     -0.5000    1.000000    
      4 Te2   c    0.784571    0.784571    0.784571     -0.3700    1.000000    
      5 Te2   c    0.215429    0.215429    0.215429     -0.3700    1.000000    
--------------------------------------------------------------------------------



********************************************************************************
*  Input for Configuration =  40                                               *
********************************************************************************

  Formula = Sb2Te3                                                      

  Number of irreducible atoms/shells =       5


  Total number atoms/shells =       5

  Dimensionality = 3               :  Bulk   



  Cartesian lattice vectors (Angstroms) :

       -2.504286    0.000000   10.443767
        1.252143   -2.168775   10.443767
        1.252143    2.168775   10.443767

  Cell parameters (Angstroms/Degrees):

  a =      10.7398    alpha =  23.3006
  b =      10.7398    beta  =  23.3006
  c =      10.7398    gamma =  23.3006

  Initial cell volume =         170.167643 Angs**3

  Temperature of configuration =  0.000     K 

  Pressure of configuration =         0.000 GPa 

  Fractional coordinates of asymmetric unit :

--------------------------------------------------------------------------------
   No.  Atomic       x           y          z         Charge      Occupancy
        Label      (Frac)      (Frac)     (Frac)        (e)         (Frac)  
--------------------------------------------------------------------------------
      1 Sb    c    0.396797    0.396797    0.396797      0.6200    1.000000    
      2 Sb    c    0.603203    0.603203    0.603203      0.6200    1.000000    
      3 Te1   c    0.020000    0.020000    0.020000     -0.5000    1.000000    
      4 Te2   c    0.784571    0.784571    0.784571     -0.3700    1.000000    
      5 Te2   c    0.215429    0.215429    0.215429     -0.3700    1.000000    
--------------------------------------------------------------------------------



********************************************************************************
*  Input for Configuration =  41                                               *
********************************************************************************

  Formula = Sb2Te3                                                      

  Number of irreducible atoms/shells =       5


  Total number atoms/shells =       5

  Dimensionality = 3               :  Bulk   



  Cartesian lattice vectors (Angstroms) :

       -2.504286    0.000000   10.443767
        1.252143   -2.168775   10.443767
        1.252143    2.168775   10.443767

  Cell parameters (Angstroms/Degrees):

  a =      10.7398    alpha =  23.3006
  b =      10.7398    beta  =  23.3006
  c =      10.7398    gamma =  23.3006

  Initial cell volume =         170.167643 Angs**3

  Temperature of configuration =  0.000     K 

  Pressure of configuration =         0.000 GPa 

  Fractional coordinates of asymmetric unit :

--------------------------------------------------------------------------------
   No.  Atomic       x           y          z         Charge      Occupancy
        Label      (Frac)      (Frac)     (Frac)        (e)         (Frac)  
--------------------------------------------------------------------------------
      1 Sb    c    0.396797    0.396797    0.396797      0.6200    1.000000    
      2 Sb    c    0.603203    0.603203    0.603203      0.6200    1.000000    
      3 Te1   c    0.030000    0.030000    0.030000     -0.5000    1.000000    
      4 Te2   c    0.784571    0.784571    0.784571     -0.3700    1.000000    
      5 Te2   c    0.215429    0.215429    0.215429     -0.3700    1.000000    
--------------------------------------------------------------------------------



********************************************************************************
*  Input for Configuration =  42                                               *
********************************************************************************

  Formula = Sb2Te3                                                      

  Number of irreducible atoms/shells =       5


  Total number atoms/shells =       5

  Dimensionality = 3               :  Bulk   



  Cartesian lattice vectors (Angstroms) :

       -2.504286    0.000000   10.443767
        1.252143   -2.168775   10.443767
        1.252143    2.168775   10.443767

  Cell parameters (Angstroms/Degrees):

  a =      10.7398    alpha =  23.3006
  b =      10.7398    beta  =  23.3006
  c =      10.7398    gamma =  23.3006

  Initial cell volume =         170.167643 Angs**3

  Temperature of configuration =  0.000     K 

  Pressure of configuration =         0.000 GPa 

  Fractional coordinates of asymmetric unit :

--------------------------------------------------------------------------------
   No.  Atomic       x           y          z         Charge      Occupancy
        Label      (Frac)      (Frac)     (Frac)        (e)         (Frac)  
--------------------------------------------------------------------------------
      1 Sb    c    0.396797    0.396797    0.396797      0.6200    1.000000    
      2 Sb    c    0.603203    0.603203    0.603203      0.6200    1.000000    
      3 Te1   c    0.040000    0.040000    0.040000     -0.5000    1.000000    
      4 Te2   c    0.784571    0.784571    0.784571     -0.3700    1.000000    
      5 Te2   c    0.215429    0.215429    0.215429     -0.3700    1.000000    
--------------------------------------------------------------------------------



********************************************************************************
*  Input for Configuration =  43                                               *
********************************************************************************

  Formula = Sb2Te3                                                      

  Number of irreducible atoms/shells =       5


  Total number atoms/shells =       5

  Dimensionality = 3               :  Bulk   



  Cartesian lattice vectors (Angstroms) :

       -2.504286    0.000000   10.443767
        1.252143   -2.168775   10.443767
        1.252143    2.168775   10.443767

  Cell parameters (Angstroms/Degrees):

  a =      10.7398    alpha =  23.3006
  b =      10.7398    beta  =  23.3006
  c =      10.7398    gamma =  23.3006

  Initial cell volume =         170.167643 Angs**3

  Temperature of configuration =  0.000     K 

  Pressure of configuration =         0.000 GPa 

  Fractional coordinates of asymmetric unit :

--------------------------------------------------------------------------------
   No.  Atomic       x           y          z         Charge      Occupancy
        Label      (Frac)      (Frac)     (Frac)        (e)         (Frac)  
--------------------------------------------------------------------------------
      1 Sb    c    0.396797    0.396797    0.396797      0.6200    1.000000    
      2 Sb    c    0.603203    0.603203    0.603203      0.6200    1.000000    
      3 Te1   c    0.050000    0.050000    0.050000     -0.5000    1.000000    
      4 Te2   c    0.784571    0.784571    0.784571     -0.3700    1.000000    
      5 Te2   c    0.215429    0.215429    0.215429     -0.3700    1.000000    
--------------------------------------------------------------------------------



********************************************************************************
*  Input for Configuration =  44                                               *
********************************************************************************

  Formula = Sb2Te3                                                      

  Number of irreducible atoms/shells =       5


  Total number atoms/shells =       5

  Dimensionality = 3               :  Bulk   



  Cartesian lattice vectors (Angstroms) :

       -2.504286    0.000000   10.443767
        1.252143   -2.168775   10.443767
        1.252143    2.168775   10.443767

  Cell parameters (Angstroms/Degrees):

  a =      10.7398    alpha =  23.3006
  b =      10.7398    beta  =  23.3006
  c =      10.7398    gamma =  23.3006

  Initial cell volume =         170.167643 Angs**3

  Temperature of configuration =  0.000     K 

  Pressure of configuration =         0.000 GPa 

  Fractional coordinates of asymmetric unit :

--------------------------------------------------------------------------------
   No.  Atomic       x           y          z         Charge      Occupancy
        Label      (Frac)      (Frac)     (Frac)        (e)         (Frac)  
--------------------------------------------------------------------------------
      1 Sb    c    0.396797    0.396797    0.396797      0.6200    1.000000    
      2 Sb    c    0.603203    0.603203    0.603203      0.6200    1.000000    
      3 Te1   c    0.060000    0.060000    0.060000     -0.5000    1.000000    
      4 Te2   c    0.784571    0.784571    0.784571     -0.3700    1.000000    
      5 Te2   c    0.215429    0.215429    0.215429     -0.3700    1.000000    
--------------------------------------------------------------------------------



********************************************************************************
*  Input for Configuration =  45                                               *
********************************************************************************

  Formula = Sb2Te3                                                      

  Number of irreducible atoms/shells =       5


  Total number atoms/shells =       5

  Dimensionality = 3               :  Bulk   



  Cartesian lattice vectors (Angstroms) :

       -2.504286    0.000000   10.443767
        1.252143   -2.168775   10.443767
        1.252143    2.168775   10.443767

[...]
********************************************************************************


  Components of energy : 

--------------------------------------------------------------------------------
  Interatomic potentials     =          -6.99885514 eV
  Monopole - monopole (real) =          -2.42949727 eV
  Monopole - monopole (recip)=          -4.18206253 eV
  Monopole - monopole (total)=          -6.61155980 eV
  Energy shift               =         -14.27795796 eV
--------------------------------------------------------------------------------
  Total lattice energy       =         -27.88837290 eV
--------------------------------------------------------------------------------
  Total lattice energy       =           -2690.8017 kJ/(mole unit cells)
--------------------------------------------------------------------------------


  Number of variables =     48

  Maximum number of calculations  =          1000
  Maximum Hessian update interval =            10
  Maximum step size               =   1.000000000
  Maximum parameter tolerance     =   0.000010000
  Maximum function  tolerance     =   0.000010000
  Maximum gradient  tolerance     =   0.001000000
  Maximum gradient  component     =   0.010000000

  Symmetry not applied to optimisation

  Cell parameters to be optimised using strains

  Newton-Raphson optimiser to be used

  BFGS hessian update to be used

  Dumpfile to be written after every cycle

  Start of bulk optimisation :

  Cycle:      0 Energy:       -27.888373  Gnorm:      0.142069  CPU:  915.465
  ** Hessian calculated **
  Cycle:      1 Energy:       -28.159667  Gnorm:      0.896953  CPU:  915.497
  Cycle:      2 Energy:       -28.160967  Gnorm:      0.817216  CPU:  915.545
  ** Hessian calculated **
  Cycle:      3 Energy:       -28.259547  Gnorm:      0.170961  CPU:  915.601
  Cycle:      4 Energy:       -28.313299  Gnorm:      0.224526  CPU:  915.649
  Cycle:      5 Energy:       -28.355215  Gnorm:      0.200406  CPU:  915.697
  Cycle:      6 Energy:       -28.414800  Gnorm:      0.176923  CPU:  915.745
  Cycle:      7 Energy:       -28.443154  Gnorm:      0.107795  CPU:  915.789
  Cycle:      8 Energy:       -28.449167  Gnorm:      0.090779  CPU:  915.833
  Cycle:      9 Energy:       -28.453847  Gnorm:      0.064225  CPU:  915.877
  Cycle:     10 Energy:       -28.460274  Gnorm:      0.067758  CPU:  915.929
  Cycle:     11 Energy:       -28.465077  Gnorm:      0.066358  CPU:  915.977
  Cycle:     12 Energy:       -28.468793  Gnorm:      0.069186  CPU:  916.017
  ** Hessian calculated **
  Cycle:     13 Energy:       -28.470420  Gnorm:      0.028503  CPU:  916.065
  Cycle:     14 Energy:       -28.470998  Gnorm:      0.021688  CPU:  916.109
  Cycle:     15 Energy:       -28.471421  Gnorm:      0.016871  CPU:  916.153
  Cycle:     16 Energy:       -28.471664  Gnorm:      0.018764  CPU:  916.197
  Cycle:     17 Energy:       -28.472419  Gnorm:      0.019489  CPU:  916.249
  Cycle:     18 Energy:       -28.473689  Gnorm:      0.020258  CPU:  916.305
  Cycle:     19 Energy:       -28.475603  Gnorm:      0.027404  CPU:  916.357
  Cycle:     20 Energy:       -28.478868  Gnorm:      0.043231  CPU:  916.413
  Cycle:     21 Energy:       -28.489519  Gnorm:      0.100316  CPU:  916.477
  ** Hessian calculated **
  Cycle:     22 Energy:       -28.495994  Gnorm:      0.086970  CPU:  916.529
  Cycle:     23 Energy:       -28.533369  Gnorm:      0.160466  CPU:  916.585
  Cycle:     24 Energy:       -28.586758  Gnorm:      0.194321  CPU:  916.633
  Cycle:     25 Energy:       -28.643612  Gnorm:      0.260480  CPU:  916.681
  Cycle:     26 Energy:       -28.699945  Gnorm:      0.268916  CPU:  916.725
  Cycle:     27 Energy:       -28.842974  Gnorm:      0.346163  CPU:  916.769
  Cycle:     28 Energy:       -28.968424  Gnorm:      0.343036  CPU:  916.813
  Cycle:     29 Energy:       -29.089290  Gnorm:      0.489938  CPU:  916.861
  Cycle:     30 Energy:       -29.215523  Gnorm:      0.436992  CPU:  916.901
  Cycle:     31 Energy:       -29.285278  Gnorm:      0.371918  CPU:  916.945
  ** Hessian calculated **
  Cycle:     32 Energy:       -29.390042  Gnorm:      0.254214  CPU:  917.001
  Cycle:     33 Energy:       -29.443653  Gnorm:      0.269818  CPU:  917.045
  Cycle:     34 Energy:       -29.569117  Gnorm:      0.260786  CPU:  917.097
  Cycle:     35 Energy:       -29.717664  Gnorm:      0.383941  CPU:  917.141
  Cycle:     36 Energy:       -29.808151  Gnorm:      0.355798  CPU:  917.185
  Cycle:     37 Energy:       -29.897845  Gnorm:      0.310338  CPU:  917.233
  Cycle:     38 Energy:       -29.951530  Gnorm:      0.240503  CPU:  917.273
  Cycle:     39 Energy:       -29.988114  Gnorm:      0.215992  CPU:  917.321
  Cycle:     40 Energy:       -30.022777  Gnorm:      0.186631  CPU:  917.365
  Cycle:     41 Energy:       -30.055843  Gnorm:      0.166123  CPU:  917.409
  ** Hessian calculated **
  Cycle:     42 Energy:       -30.244995  Gnorm:      0.156904  CPU:  917.469
  Cycle:     43 Energy:       -30.281644  Gnorm:      0.068499  CPU:  917.509
  Cycle:     44 Energy:       -30.288631  Gnorm:      0.019959  CPU:  917.553
  Cycle:     45 Energy:       -30.289127  Gnorm:      0.009670  CPU:  917.593
  Cycle:     46 Energy:       -30.289187  Gnorm:      0.002850  CPU:  917.637
  Cycle:     47 Energy:       -30.289196  Gnorm:      0.001336  CPU:  917.677
  Cycle:     48 Energy:       -30.289198  Gnorm:      0.000493  CPU:  917.721


  **** Optimisation achieved ****


  Final energy =     -30.28919818 eV
  Final Gnorm  =       0.00007685

  Components of energy : 

--------------------------------------------------------------------------------
  Interatomic potentials     =          -7.28439571 eV
  Monopole - monopole (real) =          -3.15145830 eV
  Monopole - monopole (recip)=          -5.57538622 eV
  Monopole - monopole (total)=          -8.72684452 eV
  Energy shift               =         -14.27795796 eV
--------------------------------------------------------------------------------
  Total lattice energy       =         -30.28919818 eV
--------------------------------------------------------------------------------
  Total lattice energy       =           -2922.4446 kJ/(mole unit cells)
--------------------------------------------------------------------------------

  Final fractional coordinates of atoms :

--------------------------------------------------------------------------------
   No.  Atomic        x           y          z          Radius
        Label       (Frac)      (Frac)     (Frac)       (Angs) 
--------------------------------------------------------------------------------
     1  Sb    c     0.666667    0.333333    0.063305    0.000000
     2  Sb    c     0.666679    0.333335    0.194794    0.000000
     3  Sb    c     0.999996    0.000012    0.396637    0.000000
     4  Sb    c     0.999998    0.000010    0.528127    0.000000
     5  Sb    c     0.333338    0.666673    0.729968    0.000000
     6  Sb    c     0.333336    0.666674    0.861458    0.000000
     7  Te1   c     0.000006    0.000006    0.962380    0.000000
     8  Te2   c     0.333340    0.666671    0.108964    0.000000
     9  Te2   c     0.000008    0.000005    0.149133    0.000000
    10  Te1   c     0.333331    0.666677    0.295715    0.000000
    11  Te2   c     0.666664    0.333345    0.442296    0.000000
    12  Te2   c     0.333331    0.666677    0.482467    0.000000
    13  Te1   c     0.666667    0.333342    0.629047    0.000000
    14  Te2   c     0.000005    0.000006    0.775628    0.000000
    15  Te2   c     0.666669    0.333341    0.815798    0.000000
--------------------------------------------------------------------------------

  Final Cartesian lattice vectors (Angstroms) :

        4.924531    0.000007   -0.000014
       -2.462260    4.264771    0.000010
       -0.000103    0.000028   23.928120


  Final cell parameters and derivatives :

--------------------------------------------------------------------------------
       a            4.924531 Angstrom     dE/de1(xx)     0.000552 eV/strain
       b            4.924530 Angstrom     dE/de2(yy)     0.000401 eV/strain
       c           23.928120 Angstrom     dE/de3(zz)    -0.000960 eV/strain
       alpha       89.999697 Degrees      dE/de4(yz)     0.000036 eV/strain
       beta        90.000412 Degrees      dE/de5(xz)     0.000159 eV/strain
       gamma      119.999852 Degrees      dE/de6(xy)     0.000307 eV/strain
--------------------------------------------------------------------------------

  Primitive cell volume =           502.538707 Angs**3

  Density of cell =      6.208550 g/cm**3

  Non-primitive cell volume =           502.538707 Angs**3


  Final internal derivatives :

--------------------------------------------------------------------------------
   No.  Atomic          x             y             z           Radius
        Label          (eV)          (eV)          (eV)        (eV/Angs)
--------------------------------------------------------------------------------
      1 Sb    c       0.000000      0.000000      0.000000      0.000000
      2 Sb    c       0.000759     -0.000788     -0.000824      0.000000
      3 Sb    c      -0.000064      0.000068      0.000758      0.000000
      4 Sb    c      -0.000091      0.000073      0.000183      0.000000
      5 Sb    c       0.000051     -0.000028     -0.001205      0.000000
      6 Sb    c       0.000058     -0.000075      0.000878      0.000000
      7 Te1   c       0.000014     -0.000011     -0.001319      0.000000
      8 Te2   c       0.000481      0.000294      0.000098      0.000000
      9 Te2   c      -0.000674      0.000694      0.000862      0.000000
     10 Te1   c      -0.000051      0.000041      0.000102      0.000000
     11 Te2   c      -0.000066      0.000060     -0.001070      0.000000
     12 Te2   c       0.000200     -0.000184      0.000849      0.000000
     13 Te1   c      -0.000011      0.000010     -0.001075      0.000000
     14 Te2   c       0.000005     -0.000021      0.000560      0.000000
     15 Te2   c      -0.000110      0.000119     -0.000397      0.000000
--------------------------------------------------------------------------------
  Maximum abs         0.000759      0.000788      0.001319      0.000000
--------------------------------------------------------------------------------


  Born effective charge tensors : 

-------------------------------------------------------------------------------
  Atom             x           y             z
-------------------------------------------------------------------------------
   1 Sb    x       0.4834      0.0000      0.0000
           y       0.0000      0.4834      0.0000
           z       0.0000      0.0000      0.4834
-------------------------------------------------------------------------------
   2 Sb    x       0.4834      0.0000      0.0000
           y       0.0000      0.4834      0.0000
           z       0.0000      0.0000      0.4834
-------------------------------------------------------------------------------
   3 Sb    x       0.4834      0.0000      0.0000
           y       0.0000      0.4834      0.0000
           z       0.0000      0.0000      0.4834
-------------------------------------------------------------------------------
   4 Sb    x       0.4834      0.0000      0.0000
           y       0.0000      0.4834      0.0000
           z       0.0000      0.0000      0.4834
-------------------------------------------------------------------------------
   5 Sb    x       0.4834      0.0000      0.0000
           y       0.0000      0.4834      0.0000
           z       0.0000      0.0000      0.4834
-------------------------------------------------------------------------------
   6 Sb    x       0.4834      0.0000      0.0000
           y       0.0000      0.4834      0.0000
           z       0.0000      0.0000      0.4834
-------------------------------------------------------------------------------
   7 Te1   x      -0.1359      0.0000      0.0000
           y       0.0000     -0.1359      0.0000
           z       0.0000      0.0000     -0.1359
-------------------------------------------------------------------------------
   8 Te2   x      -0.4154      0.0000      0.0000
           y       0.0000     -0.4154      0.0000
           z       0.0000      0.0000     -0.4154
-------------------------------------------------------------------------------
   9 Te2   x      -0.4154      0.0000      0.0000
           y       0.0000     -0.4154      0.0000
           z       0.0000      0.0000     -0.4154
-------------------------------------------------------------------------------
  10 Te1   x      -0.1359      0.0000      0.0000
           y       0.0000     -0.1359      0.0000
           z       0.0000      0.0000     -0.1359
-------------------------------------------------------------------------------
  11 Te2   x      -0.4154      0.0000      0.0000
           y       0.0000     -0.4154      0.0000
           z       0.0000      0.0000     -0.4154
-------------------------------------------------------------------------------
  12 Te2   x      -0.4154      0.0000      0.0000
           y       0.0000     -0.4154      0.0000
           z       0.0000      0.0000     -0.4154
-------------------------------------------------------------------------------
  13 Te1   x      -0.1359      0.0000      0.0000
           y       0.0000     -0.1359      0.0000
           z       0.0000      0.0000     -0.1359
-------------------------------------------------------------------------------
  14 Te2   x      -0.4154      0.0000      0.0000
           y       0.0000     -0.4154      0.0000
           z       0.0000      0.0000     -0.4154
-------------------------------------------------------------------------------
  15 Te2   x      -0.4154      0.0000      0.0000
           y       0.0000     -0.4154      0.0000
           z       0.0000      0.0000     -0.4154
-------------------------------------------------------------------------------




  Elastic Constant Matrix: (Units=GPa)

-------------------------------------------------------------------------------
  Indices      1         2         3         4         5         6    
-------------------------------------------------------------------------------
       1     -6.2267   69.1905    0.7137    0.1394   -0.0006   -0.0005
       2     69.1905   -6.2274    0.7137   -0.1393   -0.0003    0.0002
       3      0.7137    0.7137   35.8995   -0.0001    0.0003    0.0000
       4      0.1394   -0.1393   -0.0001    5.2401   -0.0003   -0.0002
       5     -0.0006   -0.0003    0.0003   -0.0003    5.2402    0.1394
       6     -0.0005    0.0002    0.0000   -0.0002    0.1394  -37.7089
-------------------------------------------------------------------------------


  Elastic Compliance Matrix: (Units=1/GPa)

-------------------------------------------------------------------------------
  Indices      1         2         3         4         5         6    
-------------------------------------------------------------------------------
       1    0.001316  0.014574 -0.000316  0.000352  0.000001  0.000000
       2    0.014574  0.001316 -0.000316 -0.000353  0.000002 -0.000000
       3   -0.000316 -0.000316  0.027868  0.000001 -0.000002  0.000000
       4    0.000352 -0.000353  0.000001  0.190819  0.000009 -0.000001
       5    0.000001  0.000002 -0.000002  0.000009  0.190812  0.000705
       6    0.000000 -0.000000  0.000000 -0.000001  0.000705 -0.026516
-------------------------------------------------------------------------------

 Mechanical properties :

-------------------------------------------------------------------------------
  Convention :                    Reuss         Voigt         Hill
-------------------------------------------------------------------------------
  Bulk  Modulus (GPa)     =      17.12816      18.29789      17.71303
  Shear Modulus (GPa)     =      13.25589      -8.59056       2.33266
-------------------------------------------------------------------------------
  Velocity S-wave (km/s)  =       4.62072      -3.71977       1.93834
  Velocity P-wave (km/s)  =       7.48706       3.32012       5.79134
-------------------------------------------------------------------------------
  Compressibility (1/GPa) =    0.05838338
-------------------------------------------------------------------------------
  Stress axis :                     x             y             z
-------------------------------------------------------------------------------
  Youngs Moduli (GPa)     =     760.06982     760.15407      35.88329
-------------------------------------------------------------------------------
  Poissons Ratio (x)      =                   -11.07834       0.01134
  Poissons Ratio (y)      =     -11.07711                     0.01133
  Poissons Ratio (z)      =       0.24011       0.24011
-------------------------------------------------------------------------------


  Piezoelectric Strain Matrix: (Units=C/m**2)

-------------------------------------------------------------------------------
  Indices      1         2         3         4         5         6    
-------------------------------------------------------------------------------
       x    -0.00002   0.00001   0.00001  -0.00001   0.00001   0.00002
       y    -0.00008   0.00005   0.00000   0.00000  -0.00001  -0.00002
       z     0.00015   0.00002   0.00000   0.00003  -0.00001  -0.00002
-------------------------------------------------------------------------------


  Piezoelectric Stress Matrix: (Units=10**-11 C/N)

-------------------------------------------------------------------------------
  Indices      1         2         3         4         5         6    
-------------------------------------------------------------------------------
       x     0.00001  -0.00003   0.00003  -0.00026   0.00026  -0.00006
       y     0.00006  -0.00011   0.00001   0.00000  -0.00026   0.00005
       z     0.00006   0.00022   0.00001   0.00049  -0.00010   0.00004
-------------------------------------------------------------------------------


  Static dielectric constant tensor : 

-------------------------------------------------------------------------------
              x         y         z
-------------------------------------------------------------------------------
       x     1.14168   0.00001   0.00001
       y     0.00001   1.14168   0.00000
       z     0.00001   0.00000   1.35015
--------------------------------------------------------------------------------

  Static refractive indices : 

-------------------------------------------------------------------------------
    1 =    1.06849      2 =    1.06850      3 =    1.16196
-------------------------------------------------------------------------------


  Time to end of optimisation =     917.7854 seconds


  Peak dynamic memory used =       1.80 MB 


  Timing analysis for GULP :

--------------------------------------------------------------------------------
  Task / Subroutine                                          Time (Seconds)
--------------------------------------------------------------------------------
  Calculation of reciprocal space energy and derivatives         52.6392
  Calculation of real space energy and derivatives              838.4085
  Sum of squares for fitting                                     19.1052
  Global summation overhead                                       0.7720
--------------------------------------------------------------------------------
  Total CPU time                                                917.7854
--------------------------------------------------------------------------------


  Dump file written as sb2te3.res                                              



  **** GULP has completed with 131 warnings - beware! ****

  Job Finished at 12:19.31 24th June       2010                               

