********************************************************************************
*                       GENERAL UTILITY LATTICE PROGRAM                        *
*                                 Julian Gale                                  *
*                      Nanochemistry Research Institute                        *
*             Curtin University of Technology, Western Australia               *
********************************************************************************
* Version = 3.4.7 * Last modified =  21st July 2009                            *
********************************************************************************
*  fit          - perform fitting run                                          *
*  optimise     - perform optimisation run after fitting                       *
*  property     - calculate properties for final geometry                      *
*  fbfgs        - use full numerical Hessian in BFGS for fitting               *
********************************************************************************

  Job Started  at 11:49.39 24th June       2010                               

  Number of CPUs =     1


  Total number of configurations input = 133

********************************************************************************
*  Input for Configuration =   1                                               *
********************************************************************************

  Formula = Sb2Te3                                                      

  Number of irreducible atoms/shells =       5


  Total number atoms/shells =       5

  Dimensionality = 3               :  Bulk   



  Cartesian lattice vectors (Angstroms) :

       -2.504286    0.000000   10.443767
        1.252143   -2.168775   10.443767
        1.252143    2.168775   10.443767

  Cell parameters (Angstroms/Degrees):

  a =      10.7398    alpha =  23.3006
  b =      10.7398    beta  =  23.3006
  c =      10.7398    gamma =  23.3006

  Initial cell volume =         170.167643 Angs**3

  Temperature of configuration =  0.000     K 

  Pressure of configuration =         0.000 GPa 

  Fractional coordinates of asymmetric unit :

--------------------------------------------------------------------------------
   No.  Atomic       x           y          z         Charge      Occupancy
        Label      (Frac)      (Frac)     (Frac)        (e)         (Frac)  
--------------------------------------------------------------------------------
      1 Sb    c    0.369021    0.369021    0.369021      0.6200    1.000000    
      2 Sb    c    0.603203    0.603203    0.603203      0.6200    1.000000    
      3 Te1   c    0.000000    0.000000    0.000000     -0.5000    1.000000    
      4 Te2   c    0.784571    0.784571    0.784571     -0.3700    1.000000    
      5 Te2   c    0.215429    0.215429    0.215429     -0.3700    1.000000    
--------------------------------------------------------------------------------



********************************************************************************
*  Input for Configuration =   2                                               *
********************************************************************************

  Formula = Sb2Te3                                                      

  Number of irreducible atoms/shells =       5


  Total number atoms/shells =       5

  Dimensionality = 3               :  Bulk   



  Cartesian lattice vectors (Angstroms) :

       -2.504286    0.000000   10.443767
        1.252143   -2.168775   10.443767
        1.252143    2.168775   10.443767

  Cell parameters (Angstroms/Degrees):

  a =      10.7398    alpha =  23.3006
  b =      10.7398    beta  =  23.3006
  c =      10.7398    gamma =  23.3006

  Initial cell volume =         170.167643 Angs**3

  Temperature of configuration =  0.000     K 

  Pressure of configuration =         0.000 GPa 

  Fractional coordinates of asymmetric unit :

--------------------------------------------------------------------------------
   No.  Atomic       x           y          z         Charge      Occupancy
        Label      (Frac)      (Frac)     (Frac)        (e)         (Frac)  
--------------------------------------------------------------------------------
      1 Sb    c    0.372989    0.372989    0.372989      0.6200    1.000000    
      2 Sb    c    0.603203    0.603203    0.603203      0.6200    1.000000    
      3 Te1   c    0.000000    0.000000    0.000000     -0.5000    1.000000    
      4 Te2   c    0.784571    0.784571    0.784571     -0.3700    1.000000    
      5 Te2   c    0.215429    0.215429    0.215429     -0.3700    1.000000    
--------------------------------------------------------------------------------



********************************************************************************
*  Input for Configuration =   3                                               *
********************************************************************************

  Formula = Sb2Te3                                                      

  Number of irreducible atoms/shells =       5


  Total number atoms/shells =       5

  Dimensionality = 3               :  Bulk   



  Cartesian lattice vectors (Angstroms) :

       -2.504286    0.000000   10.443767
        1.252143   -2.168775   10.443767
        1.252143    2.168775   10.443767

  Cell parameters (Angstroms/Degrees):

  a =      10.7398    alpha =  23.3006
  b =      10.7398    beta  =  23.3006
  c =      10.7398    gamma =  23.3006

  Initial cell volume =         170.167643 Angs**3

  Temperature of configuration =  0.000     K 

  Pressure of configuration =         0.000 GPa 

  Fractional coordinates of asymmetric unit :

--------------------------------------------------------------------------------
   No.  Atomic       x           y          z         Charge      Occupancy
        Label      (Frac)      (Frac)     (Frac)        (e)         (Frac)  
--------------------------------------------------------------------------------
      1 Sb    c    0.376957    0.376957    0.376957      0.6200    1.000000    
      2 Sb    c    0.603203    0.603203    0.603203      0.6200    1.000000    
      3 Te1   c    0.000000    0.000000    0.000000     -0.5000    1.000000    
      4 Te2   c    0.784571    0.784571    0.784571     -0.3700    1.000000    
      5 Te2   c    0.215429    0.215429    0.215429     -0.3700    1.000000    
--------------------------------------------------------------------------------



********************************************************************************
*  Input for Configuration =   4                                               *
********************************************************************************

  Formula = Sb2Te3                                                      

  Number of irreducible atoms/shells =       5


  Total number atoms/shells =       5

  Dimensionality = 3               :  Bulk   



  Cartesian lattice vectors (Angstroms) :

       -2.504286    0.000000   10.443767
        1.252143   -2.168775   10.443767
        1.252143    2.168775   10.443767

  Cell parameters (Angstroms/Degrees):

  a =      10.7398    alpha =  23.3006
  b =      10.7398    beta  =  23.3006
  c =      10.7398    gamma =  23.3006

  Initial cell volume =         170.167643 Angs**3

  Temperature of configuration =  0.000     K 

  Pressure of configuration =         0.000 GPa 

  Fractional coordinates of asymmetric unit :

--------------------------------------------------------------------------------
   No.  Atomic       x           y          z         Charge      Occupancy
        Label      (Frac)      (Frac)     (Frac)        (e)         (Frac)  
--------------------------------------------------------------------------------
      1 Sb    c    0.380925    0.380925    0.380925      0.6200    1.000000    
      2 Sb    c    0.603203    0.603203    0.603203      0.6200    1.000000    
      3 Te1   c    0.000000    0.000000    0.000000     -0.5000    1.000000    
      4 Te2   c    0.784571    0.784571    0.784571     -0.3700    1.000000    
      5 Te2   c    0.215429    0.215429    0.215429     -0.3700    1.000000    
--------------------------------------------------------------------------------



********************************************************************************
*  Input for Configuration =   5                                               *
********************************************************************************

  Formula = Sb2Te3                                                      

  Number of irreducible atoms/shells =       5


  Total number atoms/shells =       5

  Dimensionality = 3               :  Bulk   



  Cartesian lattice vectors (Angstroms) :

       -2.504286    0.000000   10.443767
        1.252143   -2.168775   10.443767
        1.252143    2.168775   10.443767

  Cell parameters (Angstroms/Degrees):

  a =      10.7398    alpha =  23.3006
  b =      10.7398    beta  =  23.3006
  c =      10.7398    gamma =  23.3006

  Initial cell volume =         170.167643 Angs**3

  Temperature of configuration =  0.000     K 

  Pressure of configuration =         0.000 GPa 

  Fractional coordinates of asymmetric unit :

--------------------------------------------------------------------------------
   No.  Atomic       x           y          z         Charge      Occupancy
        Label      (Frac)      (Frac)     (Frac)        (e)         (Frac)  
--------------------------------------------------------------------------------
      1 Sb    c    0.384893    0.384893    0.384893      0.6200    1.000000    
      2 Sb    c    0.603203    0.603203    0.603203      0.6200    1.000000    
      3 Te1   c    0.000000    0.000000    0.000000     -0.5000    1.000000    
      4 Te2   c    0.784571    0.784571    0.784571     -0.3700    1.000000    
      5 Te2   c    0.215429    0.215429    0.215429     -0.3700    1.000000    
--------------------------------------------------------------------------------



********************************************************************************
*  Input for Configuration =   6                                               *
********************************************************************************

  Formula = Sb2Te3                                                      

  Number of irreducible atoms/shells =       5


  Total number atoms/shells =       5

  Dimensionality = 3               :  Bulk   



  Cartesian lattice vectors (Angstroms) :

       -2.504286    0.000000   10.443767
        1.252143   -2.168775   10.443767
        1.252143    2.168775   10.443767

  Cell parameters (Angstroms/Degrees):

  a =      10.7398    alpha =  23.3006
  b =      10.7398    beta  =  23.3006
  c =      10.7398    gamma =  23.3006

  Initial cell volume =         170.167643 Angs**3

  Temperature of configuration =  0.000     K 

  Pressure of configuration =         0.000 GPa 

  Fractional coordinates of asymmetric unit :

--------------------------------------------------------------------------------
   No.  Atomic       x           y          z         Charge      Occupancy
        Label      (Frac)      (Frac)     (Frac)        (e)         (Frac)  
--------------------------------------------------------------------------------
      1 Sb    c    0.388861    0.388861    0.388861      0.6200    1.000000    
      2 Sb    c    0.603203    0.603203    0.603203      0.6200    1.000000    
      3 Te1   c    0.000000    0.000000    0.000000     -0.5000    1.000000    
      4 Te2   c    0.784571    0.784571    0.784571     -0.3700    1.000000    
      5 Te2   c    0.215429    0.215429    0.215429     -0.3700    1.000000    
--------------------------------------------------------------------------------



********************************************************************************
*  Input for Configuration =   7                                               *
********************************************************************************

  Formula = Sb2Te3                                                      

  Number of irreducible atoms/shells =       5


  Total number atoms/shells =       5

  Dimensionality = 3               :  Bulk   



  Cartesian lattice vectors (Angstroms) :

       -2.504286    0.000000   10.443767
        1.252143   -2.168775   10.443767
        1.252143    2.168775   10.443767

  Cell parameters (Angstroms/Degrees):

  a =      10.7398    alpha =  23.3006
  b =      10.7398    beta  =  23.3006
  c =      10.7398    gamma =  23.3006

  Initial cell volume =         170.167643 Angs**3

  Temperature of configuration =  0.000     K 

  Pressure of configuration =         0.000 GPa 

  Fractional coordinates of asymmetric unit :

--------------------------------------------------------------------------------
   No.  Atomic       x           y          z         Charge      Occupancy
        Label      (Frac)      (Frac)     (Frac)        (e)         (Frac)  
--------------------------------------------------------------------------------
      1 Sb    c    0.392829    0.392829    0.392829      0.6200    1.000000    
      2 Sb    c    0.603203    0.603203    0.603203      0.6200    1.000000    
      3 Te1   c    0.000000    0.000000    0.000000     -0.5000    1.000000    
      4 Te2   c    0.784571    0.784571    0.784571     -0.3700    1.000000    
      5 Te2   c    0.215429    0.215429    0.215429     -0.3700    1.000000    
--------------------------------------------------------------------------------



********************************************************************************
*  Input for Configuration =   8                                               *
********************************************************************************

  Formula = Sb2Te3                                                      

  Number of irreducible atoms/shells =       5


  Total number atoms/shells =       5

  Dimensionality = 3               :  Bulk   



  Cartesian lattice vectors (Angstroms) :

       -2.504286    0.000000   10.443767
        1.252143   -2.168775   10.443767
        1.252143    2.168775   10.443767

  Cell parameters (Angstroms/Degrees):

  a =      10.7398    alpha =  23.3006
  b =      10.7398    beta  =  23.3006
  c =      10.7398    gamma =  23.3006

  Initial cell volume =         170.167643 Angs**3

  Temperature of configuration =  0.000     K 

  Pressure of configuration =         0.000 GPa 

  Fractional coordinates of asymmetric unit :

--------------------------------------------------------------------------------
   No.  Atomic       x           y          z         Charge      Occupancy
        Label      (Frac)      (Frac)     (Frac)        (e)         (Frac)  
--------------------------------------------------------------------------------
      1 Sb    c    0.396797    0.396797    0.396797      0.6200    1.000000    
      2 Sb    c    0.603203    0.603203    0.603203      0.6200    1.000000    
      3 Te1   c    0.000000    0.000000    0.000000     -0.5000    1.000000    
      4 Te2   c    0.784571    0.784571    0.784571     -0.3700    1.000000    
      5 Te2   c    0.215429    0.215429    0.215429     -0.3700    1.000000    
--------------------------------------------------------------------------------



********************************************************************************
*  Input for Configuration =   9                                               *
********************************************************************************

  Formula = Sb2Te3                                                      

  Number of irreducible atoms/shells =       5


  Total number atoms/shells =       5

  Dimensionality = 3               :  Bulk   



  Cartesian lattice vectors (Angstroms) :

       -2.504286    0.000000   10.443767
        1.252143   -2.168775   10.443767
        1.252143    2.168775   10.443767

  Cell parameters (Angstroms/Degrees):

  a =      10.7398    alpha =  23.3006
  b =      10.7398    beta  =  23.3006
  c =      10.7398    gamma =  23.3006

  Initial cell volume =         170.167643 Angs**3

  Temperature of configuration =  0.000     K 

  Pressure of configuration =         0.000 GPa 

  Fractional coordinates of asymmetric unit :

--------------------------------------------------------------------------------
   No.  Atomic       x           y          z         Charge      Occupancy
        Label      (Frac)      (Frac)     (Frac)        (e)         (Frac)  
--------------------------------------------------------------------------------
      1 Sb    c    0.400765    0.400765    0.400765      0.6200    1.000000    
      2 Sb    c    0.603203    0.603203    0.603203      0.6200    1.000000    
      3 Te1   c    0.000000    0.000000    0.000000     -0.5000    1.000000    
      4 Te2   c    0.784571    0.784571    0.784571     -0.3700    1.000000    
      5 Te2   c    0.215429    0.215429    0.215429     -0.3700    1.000000    
--------------------------------------------------------------------------------



********************************************************************************
*  Input for Configuration =  10                                               *
********************************************************************************

  Formula = Sb2Te3                                                      

  Number of irreducible atoms/shells =       5


  Total number atoms/shells =       5

  Dimensionality = 3               :  Bulk   



  Cartesian lattice vectors (Angstroms) :

       -2.504286    0.000000   10.443767
        1.252143   -2.168775   10.443767
        1.252143    2.168775   10.443767

  Cell parameters (Angstroms/Degrees):

  a =      10.7398    alpha =  23.3006
  b =      10.7398    beta  =  23.3006
  c =      10.7398    gamma =  23.3006

  Initial cell volume =         170.167643 Angs**3

  Temperature of configuration =  0.000     K 

  Pressure of configuration =         0.000 GPa 

  Fractional coordinates of asymmetric unit :

--------------------------------------------------------------------------------
   No.  Atomic       x           y          z         Charge      Occupancy
        Label      (Frac)      (Frac)     (Frac)        (e)         (Frac)  
--------------------------------------------------------------------------------
      1 Sb    c    0.404733    0.404733    0.404733      0.6200    1.000000    
      2 Sb    c    0.603203    0.603203    0.603203      0.6200    1.000000    
      3 Te1   c    0.000000    0.000000    0.000000     -0.5000    1.000000    
      4 Te2   c    0.784571    0.784571    0.784571     -0.3700    1.000000    
      5 Te2   c    0.215429    0.215429    0.215429     -0.3700    1.000000    
--------------------------------------------------------------------------------



********************************************************************************
*  Input for Configuration =  11                                               *
********************************************************************************

  Formula = Sb2Te3                                                      

  Number of irreducible atoms/shells =       5


  Total number atoms/shells =       5

  Dimensionality = 3               :  Bulk   



  Cartesian lattice vectors (Angstroms) :

       -2.504286    0.000000   10.443767
        1.252143   -2.168775   10.443767
        1.252143    2.168775   10.443767

  Cell parameters (Angstroms/Degrees):

  a =      10.7398    alpha =  23.3006
  b =      10.7398    beta  =  23.3006
  c =      10.7398    gamma =  23.3006

  Initial cell volume =         170.167643 Angs**3

  Temperature of configuration =  0.000     K 

  Pressure of configuration =         0.000 GPa 

  Fractional coordinates of asymmetric unit :

--------------------------------------------------------------------------------
   No.  Atomic       x           y          z         Charge      Occupancy
        Label      (Frac)      (Frac)     (Frac)        (e)         (Frac)  
--------------------------------------------------------------------------------
      1 Sb    c    0.408700    0.408700    0.408700      0.6200    1.000000    
      2 Sb    c    0.603203    0.603203    0.603203      0.6200    1.000000    
      3 Te1   c    0.000000    0.000000    0.000000     -0.5000    1.000000    
      4 Te2   c    0.784571    0.784571    0.784571     -0.3700    1.000000    
      5 Te2   c    0.215429    0.215429    0.215429     -0.3700    1.000000    
--------------------------------------------------------------------------------



********************************************************************************
*  Input for Configuration =  12                                               *
********************************************************************************

  Formula = Sb2Te3                                                      

  Number of irreducible atoms/shells =       5


  Total number atoms/shells =       5

  Dimensionality = 3               :  Bulk   



  Cartesian lattice vectors (Angstroms) :

       -2.504286    0.000000   10.443767
        1.252143   -2.168775   10.443767
        1.252143    2.168775   10.443767

  Cell parameters (Angstroms/Degrees):

  a =      10.7398    alpha =  23.3006
  b =      10.7398    beta  =  23.3006
  c =      10.7398    gamma =  23.3006

  Initial cell volume =         170.167643 Angs**3

  Temperature of configuration =  0.000     K 

  Pressure of configuration =         0.000 GPa 

  Fractional coordinates of asymmetric unit :

--------------------------------------------------------------------------------
   No.  Atomic       x           y          z         Charge      Occupancy
        Label      (Frac)      (Frac)     (Frac)        (e)         (Frac)  
--------------------------------------------------------------------------------
      1 Sb    c    0.412668    0.412668    0.412668      0.6200    1.000000    
      2 Sb    c    0.603203    0.603203    0.603203      0.6200    1.000000    
      3 Te1   c    0.000000    0.000000    0.000000     -0.5000    1.000000    
      4 Te2   c    0.784571    0.784571    0.784571     -0.3700    1.000000    
      5 Te2   c    0.215429    0.215429    0.215429     -0.3700    1.000000    
--------------------------------------------------------------------------------



********************************************************************************
*  Input for Configuration =  13                                               *
********************************************************************************

  Formula = Sb2Te3                                                      

  Number of irreducible atoms/shells =       5


  Total number atoms/shells =       5

  Dimensionality = 3               :  Bulk   



  Cartesian lattice vectors (Angstroms) :

       -2.504286    0.000000   10.443767
        1.252143   -2.168775   10.443767
        1.252143    2.168775   10.443767

  Cell parameters (Angstroms/Degrees):

  a =      10.7398    alpha =  23.3006
  b =      10.7398    beta  =  23.3006
  c =      10.7398    gamma =  23.3006

  Initial cell volume =         170.167643 Angs**3

  Temperature of configuration =  0.000     K 

  Pressure of configuration =         0.000 GPa 

  Fractional coordinates of asymmetric unit :

--------------------------------------------------------------------------------
   No.  Atomic       x           y          z         Charge      Occupancy
        Label      (Frac)      (Frac)     (Frac)        (e)         (Frac)  
--------------------------------------------------------------------------------
      1 Sb    c    0.416636    0.416636    0.416636      0.6200    1.000000    
      2 Sb    c    0.603203    0.603203    0.603203      0.6200    1.000000    
      3 Te1   c    0.000000    0.000000    0.000000     -0.5000    1.000000    
      4 Te2   c    0.784571    0.784571    0.784571     -0.3700    1.000000    
      5 Te2   c    0.215429    0.215429    0.215429     -0.3700    1.000000    
--------------------------------------------------------------------------------



********************************************************************************
*  Input for Configuration =  14                                               *
********************************************************************************

  Formula = Sb2Te3                                                      

  Number of irreducible atoms/shells =       5


  Total number atoms/shells =       5

  Dimensionality = 3               :  Bulk   



  Cartesian lattice vectors (Angstroms) :

       -2.504286    0.000000   10.443767
        1.252143   -2.168775   10.443767
        1.252143    2.168775   10.443767

  Cell parameters (Angstroms/Degrees):

  a =      10.7398    alpha =  23.3006
  b =      10.7398    beta  =  23.3006
  c =      10.7398    gamma =  23.3006

  Initial cell volume =         170.167643 Angs**3

  Temperature of configuration =  0.000     K 

  Pressure of configuration =         0.000 GPa 

  Fractional coordinates of asymmetric unit :

--------------------------------------------------------------------------------
   No.  Atomic       x           y          z         Charge      Occupancy
        Label      (Frac)      (Frac)     (Frac)        (e)         (Frac)  
--------------------------------------------------------------------------------
      1 Sb    c    0.420604    0.420604    0.420604      0.6200    1.000000    
      2 Sb    c    0.603203    0.603203    0.603203      0.6200    1.000000    
      3 Te1   c    0.000000    0.000000    0.000000     -0.5000    1.000000    
      4 Te2   c    0.784571    0.784571    0.784571     -0.3700    1.000000    
      5 Te2   c    0.215429    0.215429    0.215429     -0.3700    1.000000    
--------------------------------------------------------------------------------



********************************************************************************
*  Input for Configuration =  15                                               *
********************************************************************************

  Formula = Sb2Te3                                                      

  Number of irreducible atoms/shells =       5


  Total number atoms/shells =       5

  Dimensionality = 3               :  Bulk   



  Cartesian lattice vectors (Angstroms) :

       -2.504286    0.000000   10.443767
        1.252143   -2.168775   10.443767
        1.252143    2.168775   10.443767

  Cell parameters (Angstroms/Degrees):

  a =      10.7398    alpha =  23.3006
  b =      10.7398    beta  =  23.3006
  c =      10.7398    gamma =  23.3006

  Initial cell volume =         170.167643 Angs**3

  Temperature of configuration =  0.000     K 

  Pressure of configuration =         0.000 GPa 

  Fractional coordinates of asymmetric unit :

--------------------------------------------------------------------------------
   No.  Atomic       x           y          z         Charge      Occupancy
        Label      (Frac)      (Frac)     (Frac)        (e)         (Frac)  
--------------------------------------------------------------------------------
      1 Sb    c    0.424572    0.424572    0.424572      0.6200    1.000000    
      2 Sb    c    0.603203    0.603203    0.603203      0.6200    1.000000    
      3 Te1   c    0.000000    0.000000    0.000000     -0.5000    1.000000    
      4 Te2   c    0.784571    0.784571    0.784571     -0.3700    1.000000    
      5 Te2   c    0.215429    0.215429    0.215429     -0.3700    1.000000    
--------------------------------------------------------------------------------



********************************************************************************
*  Input for Configuration =  16                                               *
********************************************************************************

  Formula = Sb2Te3                                                      

  Number of irreducible atoms/shells =       5


  Total number atoms/shells =       5

  Dimensionality = 3               :  Bulk   



  Cartesian lattice vectors (Angstroms) :

       -2.504286    0.000000   10.443767
        1.252143   -2.168775   10.443767
        1.252143    2.168775   10.443767

  Cell parameters (Angstroms/Degrees):

  a =      10.7398    alpha =  23.3006
  b =      10.7398    beta  =  23.3006
  c =      10.7398    gamma =  23.3006

  Initial cell volume =         170.167643 Angs**3

  Temperature of configuration =  0.000     K 

  Pressure of configuration =         0.000 GPa 

  Fractional coordinates of asymmetric unit :

--------------------------------------------------------------------------------
   No.  Atomic       x           y          z         Charge      Occupancy
        Label      (Frac)      (Frac)     (Frac)        (e)         (Frac)  
--------------------------------------------------------------------------------
      1 Sb    c    0.396797    0.396797    0.396797      0.6200    1.000000    
      2 Sb    c    0.560979    0.560979    0.560979      0.6200    1.000000    
      3 Te1   c    0.000000    0.000000    0.000000     -0.5000    1.000000    
      4 Te2   c    0.784571    0.784571    0.784571     -0.3700    1.000000    
      5 Te2   c    0.215429    0.215429    0.215429     -0.3700    1.000000    
--------------------------------------------------------------------------------



********************************************************************************
*  Input for Configuration =  17                                               *
********************************************************************************

  Formula = Sb2Te3                                                      

  Number of irreducible atoms/shells =       5


  Total number atoms/shells =       5

  Dimensionality = 3               :  Bulk   



  Cartesian lattice vectors (Angstroms) :

       -2.504286    0.000000   10.443767
        1.252143   -2.168775   10.443767
        1.252143    2.168775   10.443767

  Cell parameters (Angstroms/Degrees):

  a =      10.7398    alpha =  23.3006
  b =      10.7398    beta  =  23.3006
  c =      10.7398    gamma =  23.3006

  Initial cell volume =         170.167643 Angs**3

  Temperature of configuration =  0.000     K 

  Pressure of configuration =         0.000 GPa 

  Fractional coordinates of asymmetric unit :

--------------------------------------------------------------------------------
   No.  Atomic       x           y          z         Charge      Occupancy
        Label      (Frac)      (Frac)     (Frac)        (e)         (Frac)  
--------------------------------------------------------------------------------
      1 Sb    c    0.396797    0.396797    0.396797      0.6200    1.000000    
      2 Sb    c    0.567011    0.567011    0.567011      0.6200    1.000000    
      3 Te1   c    0.000000    0.000000    0.000000     -0.5000    1.000000    
      4 Te2   c    0.784571    0.784571    0.784571     -0.3700    1.000000    
      5 Te2   c    0.215429    0.215429    0.215429     -0.3700    1.000000    
--------------------------------------------------------------------------------



********************************************************************************
*  Input for Configuration =  18                                               *
********************************************************************************

  Formula = Sb2Te3                                                      

  Number of irreducible atoms/shells =       5


  Total number atoms/shells =       5

  Dimensionality = 3               :  Bulk   



  Cartesian lattice vectors (Angstroms) :

       -2.504286    0.000000   10.443767
        1.252143   -2.168775   10.443767
        1.252143    2.168775   10.443767

  Cell parameters (Angstroms/Degrees):

  a =      10.7398    alpha =  23.3006
  b =      10.7398    beta  =  23.3006
  c =      10.7398    gamma =  23.3006

  Initial cell volume =         170.167643 Angs**3

  Temperature of configuration =  0.000     K 

  Pressure of configuration =         0.000 GPa 

  Fractional coordinates of asymmetric unit :

--------------------------------------------------------------------------------
   No.  Atomic       x           y          z         Charge      Occupancy
        Label      (Frac)      (Frac)     (Frac)        (e)         (Frac)  
--------------------------------------------------------------------------------
      1 Sb    c    0.396797    0.396797    0.396797      0.6200    1.000000    
      2 Sb    c    0.573043    0.573043    0.573043      0.6200    1.000000    
      3 Te1   c    0.000000    0.000000    0.000000     -0.5000    1.000000    
      4 Te2   c    0.784571    0.784571    0.784571     -0.3700    1.000000    
      5 Te2   c    0.215429    0.215429    0.215429     -0.3700    1.000000    
--------------------------------------------------------------------------------



********************************************************************************
*  Input for Configuration =  19                                               *
********************************************************************************

  Formula = Sb2Te3                                                      

  Number of irreducible atoms/shells =       5


  Total number atoms/shells =       5

  Dimensionality = 3               :  Bulk   



  Cartesian lattice vectors (Angstroms) :

       -2.504286    0.000000   10.443767
        1.252143   -2.168775   10.443767
        1.252143    2.168775   10.443767

  Cell parameters (Angstroms/Degrees):

  a =      10.7398    alpha =  23.3006
  b =      10.7398    beta  =  23.3006
  c =      10.7398    gamma =  23.3006

  Initial cell volume =         170.167643 Angs**3

  Temperature of configuration =  0.000     K 

  Pressure of configuration =         0.000 GPa 

  Fractional coordinates of asymmetric unit :

--------------------------------------------------------------------------------
   No.  Atomic       x           y          z         Charge      Occupancy
        Label      (Frac)      (Frac)     (Frac)        (e)         (Frac)  
--------------------------------------------------------------------------------
      1 Sb    c    0.396797    0.396797    0.396797      0.6200    1.000000    
      2 Sb    c    0.579075    0.579075    0.579075      0.6200    1.000000    
      3 Te1   c    0.000000    0.000000    0.000000     -0.5000    1.000000    
      4 Te2   c    0.784571    0.784571    0.784571     -0.3700    1.000000    
      5 Te2   c    0.215429    0.215429    0.215429     -0.3700    1.000000    
--------------------------------------------------------------------------------



********************************************************************************
*  Input for Configuration =  20                                               *
********************************************************************************

  Formula = Sb2Te3                                                      

  Number of irreducible atoms/shells =       5


  Total number atoms/shells =       5

  Dimensionality = 3               :  Bulk   



  Cartesian lattice vectors (Angstroms) :

       -2.504286    0.000000   10.443767
        1.252143   -2.168775   10.443767
        1.252143    2.168775   10.443767

  Cell parameters (Angstroms/Degrees):

  a =      10.7398    alpha =  23.3006
  b =      10.7398    beta  =  23.3006
  c =      10.7398    gamma =  23.3006

  Initial cell volume =         170.167643 Angs**3

  Temperature of configuration =  0.000     K 

  Pressure of configuration =         0.000 GPa 

  Fractional coordinates of asymmetric unit :

--------------------------------------------------------------------------------
   No.  Atomic       x           y          z         Charge      Occupancy
        Label      (Frac)      (Frac)     (Frac)        (e)         (Frac)  
--------------------------------------------------------------------------------
      1 Sb    c    0.396797    0.396797    0.396797      0.6200    1.000000    
      2 Sb    c    0.585107    0.585107    0.585107      0.6200    1.000000    
      3 Te1   c    0.000000    0.000000    0.000000     -0.5000    1.000000    
      4 Te2   c    0.784571    0.784571    0.784571     -0.3700    1.000000    
      5 Te2   c    0.215429    0.215429    0.215429     -0.3700    1.000000    
--------------------------------------------------------------------------------



********************************************************************************
*  Input for Configuration =  21                                               *
********************************************************************************

  Formula = Sb2Te3                                                      

  Number of irreducible atoms/shells =       5


  Total number atoms/shells =       5

  Dimensionality = 3               :  Bulk   



  Cartesian lattice vectors (Angstroms) :

       -2.504286    0.000000   10.443767
        1.252143   -2.168775   10.443767
        1.252143    2.168775   10.443767

  Cell parameters (Angstroms/Degrees):

  a =      10.7398    alpha =  23.3006
  b =      10.7398    beta  =  23.3006
  c =      10.7398    gamma =  23.3006

  Initial cell volume =         170.167643 Angs**3

  Temperature of configuration =  0.000     K 

  Pressure of configuration =         0.000 GPa 

  Fractional coordinates of asymmetric unit :

--------------------------------------------------------------------------------
   No.  Atomic       x           y          z         Charge      Occupancy
        Label      (Frac)      (Frac)     (Frac)        (e)         (Frac)  
--------------------------------------------------------------------------------
      1 Sb    c    0.396797    0.396797    0.396797      0.6200    1.000000    
      2 Sb    c    0.591139    0.591139    0.591139      0.6200    1.000000    
      3 Te1   c    0.000000    0.000000    0.000000     -0.5000    1.000000    
      4 Te2   c    0.784571    0.784571    0.784571     -0.3700    1.000000    
      5 Te2   c    0.215429    0.215429    0.215429     -0.3700    1.000000    
--------------------------------------------------------------------------------



********************************************************************************
*  Input for Configuration =  22                                               *
********************************************************************************

  Formula = Sb2Te3                                                      

  Number of irreducible atoms/shells =       5


  Total number atoms/shells =       5

  Dimensionality = 3               :  Bulk   



  Cartesian lattice vectors (Angstroms) :

       -2.504286    0.000000   10.443767
        1.252143   -2.168775   10.443767
        1.252143    2.168775   10.443767

  Cell parameters (Angstroms/Degrees):

  a =      10.7398    alpha =  23.3006
  b =      10.7398    beta  =  23.3006
  c =      10.7398    gamma =  23.3006

  Initial cell volume =         170.167643 Angs**3

  Temperature of configuration =  0.000     K 

  Pressure of configuration =         0.000 GPa 

  Fractional coordinates of asymmetric unit :

--------------------------------------------------------------------------------
   No.  Atomic       x           y          z         Charge      Occupancy
        Label      (Frac)      (Frac)     (Frac)        (e)         (Frac)  
--------------------------------------------------------------------------------
      1 Sb    c    0.396797    0.396797    0.396797      0.6200    1.000000    
      2 Sb    c    0.597171    0.597171    0.597171      0.6200    1.000000    
      3 Te1   c    0.000000    0.000000    0.000000     -0.5000    1.000000    
      4 Te2   c    0.784571    0.784571    0.784571     -0.3700    1.000000    
      5 Te2   c    0.215429    0.215429    0.215429     -0.3700    1.000000    
--------------------------------------------------------------------------------



********************************************************************************
*  Input for Configuration =  23                                               *
********************************************************************************

  Formula = Sb2Te3                                                      

  Number of irreducible atoms/shells =       5


  Total number atoms/shells =       5

  Dimensionality = 3               :  Bulk   



  Cartesian lattice vectors (Angstroms) :

       -2.504286    0.000000   10.443767
        1.252143   -2.168775   10.443767
        1.252143    2.168775   10.443767

  Cell parameters (Angstroms/Degrees):

  a =      10.7398    alpha =  23.3006
  b =      10.7398    beta  =  23.3006
  c =      10.7398    gamma =  23.3006

  Initial cell volume =         170.167643 Angs**3

  Temperature of configuration =  0.000     K 

  Pressure of configuration =         0.000 GPa 

  Fractional coordinates of asymmetric unit :

--------------------------------------------------------------------------------
   No.  Atomic       x           y          z         Charge      Occupancy
        Label      (Frac)      (Frac)     (Frac)        (e)         (Frac)  
--------------------------------------------------------------------------------
      1 Sb    c    0.396797    0.396797    0.396797      0.6200    1.000000    
      2 Sb    c    0.603203    0.603203    0.603203      0.6200    1.000000    
      3 Te1   c    0.000000    0.000000    0.000000     -0.5000    1.000000    
      4 Te2   c    0.784571    0.784571    0.784571     -0.3700    1.000000    
      5 Te2   c    0.215429    0.215429    0.215429     -0.3700    1.000000    
--------------------------------------------------------------------------------



********************************************************************************
*  Input for Configuration =  24                                               *
********************************************************************************

  Formula = Sb2Te3                                                      

  Number of irreducible atoms/shells =       5


  Total number atoms/shells =       5

  Dimensionality = 3               :  Bulk   



  Cartesian lattice vectors (Angstroms) :

       -2.504286    0.000000   10.443767
        1.252143   -2.168775   10.443767
        1.252143    2.168775   10.443767

  Cell parameters (Angstroms/Degrees):

  a =      10.7398    alpha =  23.3006
  b =      10.7398    beta  =  23.3006
  c =      10.7398    gamma =  23.3006

  Initial cell volume =         170.167643 Angs**3

  Temperature of configuration =  0.000     K 

  Pressure of configuration =         0.000 GPa 

  Fractional coordinates of asymmetric unit :

--------------------------------------------------------------------------------
   No.  Atomic       x           y          z         Charge      Occupancy
        Label      (Frac)      (Frac)     (Frac)        (e)         (Frac)  
--------------------------------------------------------------------------------
      1 Sb    c    0.396797    0.396797    0.396797      0.6200    1.000000    
      2 Sb    c    0.609235    0.609235    0.609235      0.6200    1.000000    
      3 Te1   c    0.000000    0.000000    0.000000     -0.5000    1.000000    
      4 Te2   c    0.784571    0.784571    0.784571     -0.3700    1.000000    
      5 Te2   c    0.215429    0.215429    0.215429     -0.3700    1.000000    
--------------------------------------------------------------------------------



********************************************************************************
*  Input for Configuration =  25                                               *
********************************************************************************

  Formula = Sb2Te3                                                      

  Number of irreducible atoms/shells =       5


  Total number atoms/shells =       5

  Dimensionality = 3               :  Bulk   



  Cartesian lattice vectors (Angstroms) :

       -2.504286    0.000000   10.443767
        1.252143   -2.168775   10.443767
        1.252143    2.168775   10.443767

  Cell parameters (Angstroms/Degrees):

  a =      10.7398    alpha =  23.3006
  b =      10.7398    beta  =  23.3006
  c =      10.7398    gamma =  23.3006

  Initial cell volume =         170.167643 Angs**3

  Temperature of configuration =  0.000     K 

  Pressure of configuration =         0.000 GPa 

  Fractional coordinates of asymmetric unit :

--------------------------------------------------------------------------------
   No.  Atomic       x           y          z         Charge      Occupancy
        Label      (Frac)      (Frac)     (Frac)        (e)         (Frac)  
--------------------------------------------------------------------------------
      1 Sb    c    0.396797    0.396797    0.396797      0.6200    1.000000    
      2 Sb    c    0.615267    0.615267    0.615267      0.6200    1.000000    
      3 Te1   c    0.000000    0.000000    0.000000     -0.5000    1.000000    
      4 Te2   c    0.784571    0.784571    0.784571     -0.3700    1.000000    
      5 Te2   c    0.215429    0.215429    0.215429     -0.3700    1.000000    
--------------------------------------------------------------------------------



********************************************************************************
*  Input for Configuration =  26                                               *
********************************************************************************

  Formula = Sb2Te3                                                      

  Number of irreducible atoms/shells =       5


  Total number atoms/shells =       5

  Dimensionality = 3               :  Bulk   



  Cartesian lattice vectors (Angstroms) :

       -2.504286    0.000000   10.443767
        1.252143   -2.168775   10.443767
        1.252143    2.168775   10.443767

  Cell parameters (Angstroms/Degrees):

  a =      10.7398    alpha =  23.3006
  b =      10.7398    beta  =  23.3006
  c =      10.7398    gamma =  23.3006

  Initial cell volume =         170.167643 Angs**3

  Temperature of configuration =  0.000     K 

  Pressure of configuration =         0.000 GPa 

  Fractional coordinates of asymmetric unit :

--------------------------------------------------------------------------------
   No.  Atomic       x           y          z         Charge      Occupancy
        Label      (Frac)      (Frac)     (Frac)        (e)         (Frac)  
--------------------------------------------------------------------------------
      1 Sb    c    0.396797    0.396797    0.396797      0.6200    1.000000    
      2 Sb    c    0.621300    0.621300    0.621300      0.6200    1.000000    
      3 Te1   c    0.000000    0.000000    0.000000     -0.5000    1.000000    
      4 Te2   c    0.784571    0.784571    0.784571     -0.3700    1.000000    
      5 Te2   c    0.215429    0.215429    0.215429     -0.3700    1.000000    
--------------------------------------------------------------------------------



********************************************************************************
*  Input for Configuration =  27                                               *
********************************************************************************

  Formula = Sb2Te3                                                      

  Number of irreducible atoms/shells =       5


  Total number atoms/shells =       5

  Dimensionality = 3               :  Bulk   



  Cartesian lattice vectors (Angstroms) :

       -2.504286    0.000000   10.443767
        1.252143   -2.168775   10.443767
        1.252143    2.168775   10.443767

  Cell parameters (Angstroms/Degrees):

  a =      10.7398    alpha =  23.3006
  b =      10.7398    beta  =  23.3006
  c =      10.7398    gamma =  23.3006

  Initial cell volume =         170.167643 Angs**3

  Temperature of configuration =  0.000     K 

  Pressure of configuration =         0.000 GPa 

  Fractional coordinates of asymmetric unit :

--------------------------------------------------------------------------------
   No.  Atomic       x           y          z         Charge      Occupancy
        Label      (Frac)      (Frac)     (Frac)        (e)         (Frac)  
--------------------------------------------------------------------------------
      1 Sb    c    0.396797    0.396797    0.396797      0.6200    1.000000    
      2 Sb    c    0.627332    0.627332    0.627332      0.6200    1.000000    
      3 Te1   c    0.000000    0.000000    0.000000     -0.5000    1.000000    
      4 Te2   c    0.784571    0.784571    0.784571     -0.3700    1.000000    
      5 Te2   c    0.215429    0.215429    0.215429     -0.3700    1.000000    
--------------------------------------------------------------------------------



********************************************************************************
*  Input for Configuration =  28                                               *
********************************************************************************

  Formula = Sb2Te3                                                      

  Number of irreducible atoms/shells =       5


  Total number atoms/shells =       5

  Dimensionality = 3               :  Bulk   



  Cartesian lattice vectors (Angstroms) :

       -2.504286    0.000000   10.443767
        1.252143   -2.168775   10.443767
        1.252143    2.168775   10.443767

  Cell parameters (Angstroms/Degrees):

  a =      10.7398    alpha =  23.3006
  b =      10.7398    beta  =  23.3006
  c =      10.7398    gamma =  23.3006

  Initial cell volume =         170.167643 Angs**3

  Temperature of configuration =  0.000     K 

  Pressure of configuration =         0.000 GPa 

  Fractional coordinates of asymmetric unit :

--------------------------------------------------------------------------------
   No.  Atomic       x           y          z         Charge      Occupancy
        Label      (Frac)      (Frac)     (Frac)        (e)         (Frac)  
--------------------------------------------------------------------------------
      1 Sb    c    0.396797    0.396797    0.396797      0.6200    1.000000    
      2 Sb    c    0.633364    0.633364    0.633364      0.6200    1.000000    
      3 Te1   c    0.000000    0.000000    0.000000     -0.5000    1.000000    
      4 Te2   c    0.784571    0.784571    0.784571     -0.3700    1.000000    
      5 Te2   c    0.215429    0.215429    0.215429     -0.3700    1.000000    
--------------------------------------------------------------------------------



********************************************************************************
*  Input for Configuration =  29                                               *
********************************************************************************

  Formula = Sb2Te3                                                      

  Number of irreducible atoms/shells =       5


  Total number atoms/shells =       5

  Dimensionality = 3               :  Bulk   



  Cartesian lattice vectors (Angstroms) :

       -2.504286    0.000000   10.443767
        1.252143   -2.168775   10.443767
        1.252143    2.168775   10.443767

  Cell parameters (Angstroms/Degrees):

  a =      10.7398    alpha =  23.3006
  b =      10.7398    beta  =  23.3006
  c =      10.7398    gamma =  23.3006

  Initial cell volume =         170.167643 Angs**3

  Temperature of configuration =  0.000     K 

  Pressure of configuration =         0.000 GPa 

  Fractional coordinates of asymmetric unit :

--------------------------------------------------------------------------------
   No.  Atomic       x           y          z         Charge      Occupancy
        Label      (Frac)      (Frac)     (Frac)        (e)         (Frac)  
--------------------------------------------------------------------------------
      1 Sb    c    0.396797    0.396797    0.396797      0.6200    1.000000    
      2 Sb    c    0.639396    0.639396    0.639396      0.6200    1.000000    
      3 Te1   c    0.000000    0.000000    0.000000     -0.5000    1.000000    
      4 Te2   c    0.784571    0.784571    0.784571     -0.3700    1.000000    
      5 Te2   c    0.215429    0.215429    0.215429     -0.3700    1.000000    
--------------------------------------------------------------------------------



********************************************************************************
*  Input for Configuration =  30                                               *
********************************************************************************

  Formula = Sb2Te3                                                      

  Number of irreducible atoms/shells =       5


  Total number atoms/shells =       5

  Dimensionality = 3               :  Bulk   



  Cartesian lattice vectors (Angstroms) :

       -2.504286    0.000000   10.443767
        1.252143   -2.168775   10.443767
        1.252143    2.168775   10.443767

  Cell parameters (Angstroms/Degrees):

  a =      10.7398    alpha =  23.3006
  b =      10.7398    beta  =  23.3006
  c =      10.7398    gamma =  23.3006

  Initial cell volume =         170.167643 Angs**3

  Temperature of configuration =  0.000     K 

  Pressure of configuration =         0.000 GPa 

  Fractional coordinates of asymmetric unit :

--------------------------------------------------------------------------------
   No.  Atomic       x           y          z         Charge      Occupancy
        Label      (Frac)      (Frac)     (Frac)        (e)         (Frac)  
--------------------------------------------------------------------------------
      1 Sb    c    0.396797    0.396797    0.396797      0.6200    1.000000    
      2 Sb    c    0.645428    0.645428    0.645428      0.6200    1.000000    
      3 Te1   c    0.000000    0.000000    0.000000     -0.5000    1.000000    
      4 Te2   c    0.784571    0.784571    0.784571     -0.3700    1.000000    
      5 Te2   c    0.215429    0.215429    0.215429     -0.3700    1.000000    
--------------------------------------------------------------------------------



********************************************************************************
*  Input for Configuration =  31                                               *
********************************************************************************

  Formula = Sb2Te3                                                      

  Number of irreducible atoms/shells =       5


  Total number atoms/shells =       5

  Dimensionality = 3               :  Bulk   



  Cartesian lattice vectors (Angstroms) :

       -2.504286    0.000000   10.443767
        1.252143   -2.168775   10.443767
        1.252143    2.168775   10.443767

  Cell parameters (Angstroms/Degrees):

  a =      10.7398    alpha =  23.3006
  b =      10.7398    beta  =  23.3006
  c =      10.7398    gamma =  23.3006

  Initial cell volume =         170.167643 Angs**3

  Temperature of configuration =  0.000     K 

  Pressure of configuration =         0.000 GPa 

  Fractional coordinates of asymmetric unit :

--------------------------------------------------------------------------------
   No.  Atomic       x           y          z         Charge      Occupancy
        Label      (Frac)      (Frac)     (Frac)        (e)         (Frac)  
--------------------------------------------------------------------------------
      1 Sb    c    0.396797    0.396797    0.396797      0.6200    1.000000    
      2 Sb    c    0.603203    0.603203    0.603203      0.6200    1.000000    
      3 Te1   c    0.930000    0.930000    0.930000     -0.5000    1.000000    
      4 Te2   c    0.784571    0.784571    0.784571     -0.3700    1.000000    
      5 Te2   c    0.215429    0.215429    0.215429     -0.3700    1.000000    
--------------------------------------------------------------------------------



********************************************************************************
*  Input for Configuration =  32                                               *
********************************************************************************

  Formula = Sb2Te3                                                      

  Number of irreducible atoms/shells =       5


  Total number atoms/shells =       5

  Dimensionality = 3               :  Bulk   



  Cartesian lattice vectors (Angstroms) :

       -2.504286    0.000000   10.443767
        1.252143   -2.168775   10.443767
        1.252143    2.168775   10.443767

  Cell parameters (Angstroms/Degrees):

  a =      10.7398    alpha =  23.3006
  b =      10.7398    beta  =  23.3006
  c =      10.7398    gamma =  23.3006

  Initial cell volume =         170.167643 Angs**3

  Temperature of configuration =  0.000     K 

  Pressure of configuration =         0.000 GPa 

  Fractional coordinates of asymmetric unit :

--------------------------------------------------------------------------------
   No.  Atomic       x           y          z         Charge      Occupancy
        Label      (Frac)      (Frac)     (Frac)        (e)         (Frac)  
--------------------------------------------------------------------------------
      1 Sb    c    0.396797    0.396797    0.396797      0.6200    1.000000    
      2 Sb    c    0.603203    0.603203    0.603203      0.6200    1.000000    
      3 Te1   c    0.940000    0.940000    0.940000     -0.5000    1.000000    
      4 Te2   c    0.784571    0.784571    0.784571     -0.3700    1.000000    
      5 Te2   c    0.215429    0.215429    0.215429     -0.3700    1.000000    
--------------------------------------------------------------------------------



********************************************************************************
*  Input for Configuration =  33                                               *
********************************************************************************

  Formula = Sb2Te3                                                      

  Number of irreducible atoms/shells =       5


  Total number atoms/shells =       5

  Dimensionality = 3               :  Bulk   



  Cartesian lattice vectors (Angstroms) :

       -2.504286    0.000000   10.443767
        1.252143   -2.168775   10.443767
        1.252143    2.168775   10.443767

  Cell parameters (Angstroms/Degrees):

  a =      10.7398    alpha =  23.3006
  b =      10.7398    beta  =  23.3006
  c =      10.7398    gamma =  23.3006

  Initial cell volume =         170.167643 Angs**3

  Temperature of configuration =  0.000     K 

  Pressure of configuration =         0.000 GPa 

  Fractional coordinates of asymmetric unit :

--------------------------------------------------------------------------------
   No.  Atomic       x           y          z         Charge      Occupancy
        Label      (Frac)      (Frac)     (Frac)        (e)         (Frac)  
--------------------------------------------------------------------------------
      1 Sb    c    0.396797    0.396797    0.396797      0.6200    1.000000    
      2 Sb    c    0.603203    0.603203    0.603203      0.6200    1.000000    
      3 Te1   c    0.950000    0.950000    0.950000     -0.5000    1.000000    
      4 Te2   c    0.784571    0.784571    0.784571     -0.3700    1.000000    
      5 Te2   c    0.215429    0.215429    0.215429     -0.3700    1.000000    
--------------------------------------------------------------------------------



********************************************************************************
*  Input for Configuration =  34                                               *
********************************************************************************

  Formula = Sb2Te3                                                      

  Number of irreducible atoms/shells =       5


  Total number atoms/shells =       5

  Dimensionality = 3               :  Bulk   



  Cartesian lattice vectors (Angstroms) :

       -2.504286    0.000000   10.443767
        1.252143   -2.168775   10.443767
        1.252143    2.168775   10.443767

  Cell parameters (Angstroms/Degrees):

  a =      10.7398    alpha =  23.3006
  b =      10.7398    beta  =  23.3006
  c =      10.7398    gamma =  23.3006

  Initial cell volume =         170.167643 Angs**3

  Temperature of configuration =  0.000     K 

  Pressure of configuration =         0.000 GPa 

  Fractional coordinates of asymmetric unit :

--------------------------------------------------------------------------------
   No.  Atomic       x           y          z         Charge      Occupancy
        Label      (Frac)      (Frac)     (Frac)        (e)         (Frac)  
--------------------------------------------------------------------------------
      1 Sb    c    0.396797    0.396797    0.396797      0.6200    1.000000    
      2 Sb    c    0.603203    0.603203    0.603203      0.6200    1.000000    
      3 Te1   c    0.960000    0.960000    0.960000     -0.5000    1.000000    
      4 Te2   c    0.784571    0.784571    0.784571     -0.3700    1.000000    
      5 Te2   c    0.215429    0.215429    0.215429     -0.3700    1.000000    
--------------------------------------------------------------------------------



********************************************************************************
*  Input for Configuration =  35                                               *
********************************************************************************

  Formula = Sb2Te3                                                      

  Number of irreducible atoms/shells =       5


  Total number atoms/shells =       5

  Dimensionality = 3               :  Bulk   



  Cartesian lattice vectors (Angstroms) :

       -2.504286    0.000000   10.443767
        1.252143   -2.168775   10.443767
        1.252143    2.168775   10.443767

  Cell parameters (Angstroms/Degrees):

  a =      10.7398    alpha =  23.3006
  b =      10.7398    beta  =  23.3006
  c =      10.7398    gamma =  23.3006

  Initial cell volume =         170.167643 Angs**3

  Temperature of configuration =  0.000     K 

  Pressure of configuration =         0.000 GPa 

  Fractional coordinates of asymmetric unit :

--------------------------------------------------------------------------------
   No.  Atomic       x           y          z         Charge      Occupancy
        Label      (Frac)      (Frac)     (Frac)        (e)         (Frac)  
--------------------------------------------------------------------------------
      1 Sb    c    0.396797    0.396797    0.396797      0.6200    1.000000    
      2 Sb    c    0.603203    0.603203    0.603203      0.6200    1.000000    
      3 Te1   c    0.970000    0.970000    0.970000     -0.5000    1.000000    
      4 Te2   c    0.784571    0.784571    0.784571     -0.3700    1.000000    
      5 Te2   c    0.215429    0.215429    0.215429     -0.3700    1.000000    
--------------------------------------------------------------------------------



********************************************************************************
*  Input for Configuration =  36                                               *
********************************************************************************

  Formula = Sb2Te3                                                      

  Number of irreducible atoms/shells =       5


  Total number atoms/shells =       5

  Dimensionality = 3               :  Bulk   



  Cartesian lattice vectors (Angstroms) :

       -2.504286    0.000000   10.443767
        1.252143   -2.168775   10.443767
        1.252143    2.168775   10.443767

  Cell parameters (Angstroms/Degrees):

  a =      10.7398    alpha =  23.3006
  b =      10.7398    beta  =  23.3006
  c =      10.7398    gamma =  23.3006

  Initial cell volume =         170.167643 Angs**3

  Temperature of configuration =  0.000     K 

  Pressure of configuration =         0.000 GPa 

  Fractional coordinates of asymmetric unit :

--------------------------------------------------------------------------------
   No.  Atomic       x           y          z         Charge      Occupancy
        Label      (Frac)      (Frac)     (Frac)        (e)         (Frac)  
--------------------------------------------------------------------------------
      1 Sb    c    0.396797    0.396797    0.396797      0.6200    1.000000    
      2 Sb    c    0.603203    0.603203    0.603203      0.6200    1.000000    
      3 Te1   c    0.980000    0.980000    0.980000     -0.5000    1.000000    
      4 Te2   c    0.784571    0.784571    0.784571     -0.3700    1.000000    
      5 Te2   c    0.215429    0.215429    0.215429     -0.3700    1.000000    
--------------------------------------------------------------------------------



********************************************************************************
*  Input for Configuration =  37                                               *
********************************************************************************

  Formula = Sb2Te3                                                      

  Number of irreducible atoms/shells =       5


  Total number atoms/shells =       5

  Dimensionality = 3               :  Bulk   



  Cartesian lattice vectors (Angstroms) :

       -2.504286    0.000000   10.443767
        1.252143   -2.168775   10.443767
        1.252143    2.168775   10.443767

  Cell parameters (Angstroms/Degrees):

  a =      10.7398    alpha =  23.3006
  b =      10.7398    beta  =  23.3006
  c =      10.7398    gamma =  23.3006

  Initial cell volume =         170.167643 Angs**3

  Temperature of configuration =  0.000     K 

  Pressure of configuration =         0.000 GPa 

  Fractional coordinates of asymmetric unit :

--------------------------------------------------------------------------------
   No.  Atomic       x           y          z         Charge      Occupancy
        Label      (Frac)      (Frac)     (Frac)        (e)         (Frac)  
--------------------------------------------------------------------------------
      1 Sb    c    0.396797    0.396797    0.396797      0.6200    1.000000    
      2 Sb    c    0.603203    0.603203    0.603203      0.6200    1.000000    
      3 Te1   c    0.990000    0.990000    0.990000     -0.5000    1.000000    
      4 Te2   c    0.784571    0.784571    0.784571     -0.3700    1.000000    
      5 Te2   c    0.215429    0.215429    0.215429     -0.3700    1.000000    
--------------------------------------------------------------------------------



********************************************************************************
*  Input for Configuration =  38                                               *
********************************************************************************

  Formula = Sb2Te3                                                      

  Number of irreducible atoms/shells =       5


  Total number atoms/shells =       5

  Dimensionality = 3               :  Bulk   



  Cartesian lattice vectors (Angstroms) :

       -2.504286    0.000000   10.443767
        1.252143   -2.168775   10.443767
        1.252143    2.168775   10.443767

  Cell parameters (Angstroms/Degrees):

  a =      10.7398    alpha =  23.3006
  b =      10.7398    beta  =  23.3006
  c =      10.7398    gamma =  23.3006

  Initial cell volume =         170.167643 Angs**3

  Temperature of configuration =  0.000     K 

  Pressure of configuration =         0.000 GPa 

  Fractional coordinates of asymmetric unit :

--------------------------------------------------------------------------------
   No.  Atomic       x           y          z         Charge      Occupancy
        Label      (Frac)      (Frac)     (Frac)        (e)         (Frac)  
--------------------------------------------------------------------------------
      1 Sb    c    0.396797    0.396797    0.396797      0.6200    1.000000    
      2 Sb    c    0.603203    0.603203    0.603203      0.6200    1.000000    
      3 Te1   c    0.000000    0.000000    0.000000     -0.5000    1.000000    
      4 Te2   c    0.784571    0.784571    0.784571     -0.3700    1.000000    
      5 Te2   c    0.215429    0.215429    0.215429     -0.3700    1.000000    
--------------------------------------------------------------------------------



********************************************************************************
*  Input for Configuration =  39                                               *
********************************************************************************

  Formula = Sb2Te3                                                      

  Number of irreducible atoms/shells =       5


  Total number atoms/shells =       5

  Dimensionality = 3               :  Bulk   



  Cartesian lattice vectors (Angstroms) :

       -2.504286    0.000000   10.443767
        1.252143   -2.168775   10.443767
        1.252143    2.168775   10.443767

  Cell parameters (Angstroms/Degrees):

  a =      10.7398    alpha =  23.3006
  b =      10.7398    beta  =  23.3006
  c =      10.7398    gamma =  23.3006

  Initial cell volume =         170.167643 Angs**3

  Temperature of configuration =  0.000     K 

  Pressure of configuration =         0.000 GPa 

  Fractional coordinates of asymmetric unit :

--------------------------------------------------------------------------------
   No.  Atomic       x           y          z         Charge      Occupancy
        Label      (Frac)      (Frac)     (Frac)        (e)         (Frac)  
--------------------------------------------------------------------------------
      1 Sb    c    0.396797    0.396797    0.396797      0.6200    1.000000    
      2 Sb    c    0.603203    0.603203    0.603203      0.6200    1.000000    
      3 Te1   c    0.010000    0.010000    0.010000     -0.5000    1.000000    
      4 Te2   c    0.784571    0.784571    0.784571     -0.3700    1.000000    
      5 Te2   c    0.215429    0.215429    0.215429     -0.3700    1.000000    
--------------------------------------------------------------------------------



********************************************************************************
*  Input for Configuration =  40                                               *
********************************************************************************

  Formula = Sb2Te3                                                      

  Number of irreducible atoms/shells =       5


  Total number atoms/shells =       5

  Dimensionality = 3               :  Bulk   



  Cartesian lattice vectors (Angstroms) :

       -2.504286    0.000000   10.443767
        1.252143   -2.168775   10.443767
        1.252143    2.168775   10.443767

  Cell parameters (Angstroms/Degrees):

  a =      10.7398    alpha =  23.3006
  b =      10.7398    beta  =  23.3006
  c =      10.7398    gamma =  23.3006

  Initial cell volume =         170.167643 Angs**3

  Temperature of configuration =  0.000     K 

  Pressure of configuration =         0.000 GPa 

  Fractional coordinates of asymmetric unit :

--------------------------------------------------------------------------------
   No.  Atomic       x           y          z         Charge      Occupancy
        Label      (Frac)      (Frac)     (Frac)        (e)         (Frac)  
--------------------------------------------------------------------------------
      1 Sb    c    0.396797    0.396797    0.396797      0.6200    1.000000    
      2 Sb    c    0.603203    0.603203    0.603203      0.6200    1.000000    
      3 Te1   c    0.020000    0.020000    0.020000     -0.5000    1.000000    
      4 Te2   c    0.784571    0.784571    0.784571     -0.3700    1.000000    
      5 Te2   c    0.215429    0.215429    0.215429     -0.3700    1.000000    
--------------------------------------------------------------------------------



********************************************************************************
*  Input for Configuration =  41                                               *
********************************************************************************

  Formula = Sb2Te3                                                      

  Number of irreducible atoms/shells =       5


  Total number atoms/shells =       5

  Dimensionality = 3               :  Bulk   



  Cartesian lattice vectors (Angstroms) :

       -2.504286    0.000000   10.443767
        1.252143   -2.168775   10.443767
        1.252143    2.168775   10.443767

  Cell parameters (Angstroms/Degrees):

  a =      10.7398    alpha =  23.3006
  b =      10.7398    beta  =  23.3006
  c =      10.7398    gamma =  23.3006

  Initial cell volume =         170.167643 Angs**3

  Temperature of configuration =  0.000     K 

  Pressure of configuration =         0.000 GPa 

  Fractional coordinates of asymmetric unit :

--------------------------------------------------------------------------------
   No.  Atomic       x           y          z         Charge      Occupancy
        Label      (Frac)      (Frac)     (Frac)        (e)         (Frac)  
--------------------------------------------------------------------------------
      1 Sb    c    0.396797    0.396797    0.396797      0.6200    1.000000    
      2 Sb    c    0.603203    0.603203    0.603203      0.6200    1.000000    
      3 Te1   c    0.030000    0.030000    0.030000     -0.5000    1.000000    
      4 Te2   c    0.784571    0.784571    0.784571     -0.3700    1.000000    
      5 Te2   c    0.215429    0.215429    0.215429     -0.3700    1.000000    
--------------------------------------------------------------------------------



********************************************************************************
*  Input for Configuration =  42                                               *
********************************************************************************

  Formula = Sb2Te3                                                      

  Number of irreducible atoms/shells =       5


  Total number atoms/shells =       5

  Dimensionality = 3               :  Bulk   



  Cartesian lattice vectors (Angstroms) :

       -2.504286    0.000000   10.443767
        1.252143   -2.168775   10.443767
        1.252143    2.168775   10.443767

  Cell parameters (Angstroms/Degrees):

  a =      10.7398    alpha =  23.3006
  b =      10.7398    beta  =  23.3006
  c =      10.7398    gamma =  23.3006

  Initial cell volume =         170.167643 Angs**3

  Temperature of configuration =  0.000     K 

  Pressure of configuration =         0.000 GPa 

  Fractional coordinates of asymmetric unit :

--------------------------------------------------------------------------------
   No.  Atomic       x           y          z         Charge      Occupancy
        Label      (Frac)      (Frac)     (Frac)        (e)         (Frac)  
--------------------------------------------------------------------------------
      1 Sb    c    0.396797    0.396797    0.396797      0.6200    1.000000    
      2 Sb    c    0.603203    0.603203    0.603203      0.6200    1.000000    
      3 Te1   c    0.040000    0.040000    0.040000     -0.5000    1.000000    
      4 Te2   c    0.784571    0.784571    0.784571     -0.3700    1.000000    
      5 Te2   c    0.215429    0.215429    0.215429     -0.3700    1.000000    
--------------------------------------------------------------------------------



********************************************************************************
*  Input for Configuration =  43                                               *
********************************************************************************

  Formula = Sb2Te3                                                      

  Number of irreducible atoms/shells =       5


  Total number atoms/shells =       5

  Dimensionality = 3               :  Bulk   



  Cartesian lattice vectors (Angstroms) :

       -2.504286    0.000000   10.443767
        1.252143   -2.168775   10.443767
        1.252143    2.168775   10.443767

  Cell parameters (Angstroms/Degrees):

  a =      10.7398    alpha =  23.3006
  b =      10.7398    beta  =  23.3006
  c =      10.7398    gamma =  23.3006

  Initial cell volume =         170.167643 Angs**3

  Temperature of configuration =  0.000     K 

  Pressure of configuration =         0.000 GPa 

  Fractional coordinates of asymmetric unit :

--------------------------------------------------------------------------------
   No.  Atomic       x           y          z         Charge      Occupancy
        Label      (Frac)      (Frac)     (Frac)        (e)         (Frac)  
--------------------------------------------------------------------------------
      1 Sb    c    0.396797    0.396797    0.396797      0.6200    1.000000    
      2 Sb    c    0.603203    0.603203    0.603203      0.6200    1.000000    
      3 Te1   c    0.050000    0.050000    0.050000     -0.5000    1.000000    
      4 Te2   c    0.784571    0.784571    0.784571     -0.3700    1.000000    
      5 Te2   c    0.215429    0.215429    0.215429     -0.3700    1.000000    
--------------------------------------------------------------------------------



********************************************************************************
*  Input for Configuration =  44                                               *
********************************************************************************

  Formula = Sb2Te3                                                      

  Number of irreducible atoms/shells =       5


  Total number atoms/shells =       5

  Dimensionality = 3               :  Bulk   



  Cartesian lattice vectors (Angstroms) :

       -2.504286    0.000000   10.443767
        1.252143   -2.168775   10.443767
        1.252143    2.168775   10.443767

  Cell parameters (Angstroms/Degrees):

  a =      10.7398    alpha =  23.3006
  b =      10.7398    beta  =  23.3006
  c =      10.7398    gamma =  23.3006

  Initial cell volume =         170.167643 Angs**3

  Temperature of configuration =  0.000     K 

  Pressure of configuration =         0.000 GPa 

  Fractional coordinates of asymmetric unit :

--------------------------------------------------------------------------------
   No.  Atomic       x           y          z         Charge      Occupancy
        Label      (Frac)      (Frac)     (Frac)        (e)         (Frac)  
--------------------------------------------------------------------------------
      1 Sb    c    0.396797    0.396797    0.396797      0.6200    1.000000    
      2 Sb    c    0.603203    0.603203    0.603203      0.6200    1.000000    
      3 Te1   c    0.060000    0.060000    0.060000     -0.5000    1.000000    
      4 Te2   c    0.784571    0.784571    0.784571     -0.3700    1.000000    
      5 Te2   c    0.215429    0.215429    0.215429     -0.3700    1.000000    
--------------------------------------------------------------------------------



********************************************************************************
*  Input for Configuration =  45                                               *
********************************************************************************

  Formula = Sb2Te3                                                      

  Number of irreducible atoms/shells =       5


  Total number atoms/shells =       5

  Dimensionality = 3               :  Bulk   



  Cartesian lattice vectors (Angstroms) :

       -2.504286    0.000000   10.443767
        1.252143   -2.168775   10.443767
        1.252143    2.168775   10.443767

[...]
-------------------------------------------------------------------------------
  Youngs Moduli (GPa)     =      56.24344      56.24344     199.71740
-------------------------------------------------------------------------------
  Poissons Ratio (x)      =                    -0.23420       0.17889
  Poissons Ratio (y)      =      -0.23420                     0.17889
  Poissons Ratio (z)      =       0.05038       0.05038
-------------------------------------------------------------------------------


  Piezoelectric Strain Matrix: (Units=C/m**2)

-------------------------------------------------------------------------------
  Indices      1         2         3         4         5         6    
-------------------------------------------------------------------------------
       x    -0.00003   0.00003  -0.00000  -0.00000  -0.00003  -0.00000
       y     0.00000  -0.00000   0.00000  -0.00003  -0.00000   0.00003
       z    -0.00000  -0.00000  -0.00003  -0.00000   0.00000   0.00000
-------------------------------------------------------------------------------


  Piezoelectric Stress Matrix: (Units=10**-11 C/N)

-------------------------------------------------------------------------------
  Indices      1         2         3         4         5         6    
-------------------------------------------------------------------------------
       x     0.00002  -0.00002  -0.00000   0.00000   0.00040  -0.00000
       y     0.00000  -0.00000   0.00000   0.00040   0.00000  -0.00004
       z    -0.00000  -0.00000  -0.00001   0.00000  -0.00000  -0.00000
-------------------------------------------------------------------------------


  Static dielectric constant tensor : 

-------------------------------------------------------------------------------
              x         y         z
-------------------------------------------------------------------------------
       x    -0.46434  -0.00000  -0.00000
       y    -0.00000  -0.46434   0.00000
       z    -0.00000   0.00000   1.16599
--------------------------------------------------------------------------------

  Static refractive indices : 

-------------------------------------------------------------------------------
    1 =   -0.68143      2 =   -0.68143      3 =    1.07981
-------------------------------------------------------------------------------


  Time to end of optimisation =     378.6117 seconds


********************************************************************************
*  Output for configuration 133                                                *
********************************************************************************


  Components of energy : 

--------------------------------------------------------------------------------
  Interatomic potentials     =         -10.83027086 eV
  Monopole - monopole (real) =          -5.67123863 eV
  Monopole - monopole (recip)=          -8.27589144 eV
  Monopole - monopole (total)=         -13.94713007 eV
  Energy shift               =          -9.47139003 eV
--------------------------------------------------------------------------------
  Total lattice energy       =         -34.24879096 eV
--------------------------------------------------------------------------------
  Total lattice energy       =           -3304.4848 kJ/(mole unit cells)
--------------------------------------------------------------------------------


  Number of variables =     48

  Maximum number of calculations  =          1000
  Maximum Hessian update interval =            10
  Maximum step size               =   1.000000000
  Maximum parameter tolerance     =   0.000010000
  Maximum function  tolerance     =   0.000010000
  Maximum gradient  tolerance     =   0.001000000
  Maximum gradient  component     =   0.010000000

  Symmetry not applied to optimisation

  Cell parameters to be optimised using strains

  Newton-Raphson optimiser to be used

  BFGS hessian update to be used

  Dumpfile to be written after every cycle

  Start of bulk optimisation :

  Cycle:      0 Energy:       -34.248791  Gnorm:      0.229478  CPU:  378.648
  ** Hessian calculated **
  Cycle:      1 Energy:       -35.695703  Gnorm:      3.391063  CPU:  378.672
  ** Hessian calculated **
  Cycle:      2 Energy:       -36.360047  Gnorm:      0.824809  CPU:  378.724
  Cycle:      3 Energy:       -37.311989  Gnorm:      1.517058  CPU:  378.780
  Cycle:      4 Energy:       -37.777951  Gnorm:      2.023651  CPU:  378.824
  Cycle:      5 Energy:       -37.945952  Gnorm:      1.796765  CPU:  378.864
  Cycle:      6 Energy:       -38.771880  Gnorm:      0.743554  CPU:  378.912
  Cycle:      7 Energy:       -38.940852  Gnorm:      0.554500  CPU:  378.956
  Cycle:      8 Energy:       -39.187199  Gnorm:      0.671066  CPU:  379.004
  Cycle:      9 Energy:       -39.359566  Gnorm:      0.831763  CPU:  379.048
  Cycle:     10 Energy:       -39.429319  Gnorm:      0.430236  CPU:  379.088
  Cycle:     11 Energy:       -39.455924  Gnorm:      0.190578  CPU:  379.132
  ** Hessian calculated **
  Cycle:     12 Energy:       -39.556027  Gnorm:      0.082004  CPU:  379.192
  Cycle:     13 Energy:       -39.565946  Gnorm:      0.019428  CPU:  379.236
  Cycle:     14 Energy:       -39.566052  Gnorm:      0.005557  CPU:  379.280
  Cycle:     15 Energy:       -39.566062  Gnorm:      0.001555  CPU:  379.324
  Cycle:     16 Energy:       -39.566063  Gnorm:      0.000466  CPU:  379.368


  **** Optimisation achieved ****


  Final energy =     -39.56606281 eV
  Final Gnorm  =       0.00009146

  Components of energy : 

--------------------------------------------------------------------------------
  Interatomic potentials     =         -15.50960584 eV
  Monopole - monopole (real) =          -4.42323920 eV
  Monopole - monopole (recip)=         -10.16182774 eV
  Monopole - monopole (total)=         -14.58506694 eV
  Energy shift               =          -9.47139003 eV
--------------------------------------------------------------------------------
  Total lattice energy       =         -39.56606281 eV
--------------------------------------------------------------------------------
  Total lattice energy       =           -3817.5202 kJ/(mole unit cells)
--------------------------------------------------------------------------------

  Final fractional coordinates of atoms :

--------------------------------------------------------------------------------
   No.  Atomic        x           y          z          Radius
        Label       (Frac)      (Frac)     (Frac)       (Angs) 
--------------------------------------------------------------------------------
     1  Sb    c     0.666667    0.333333    0.063305    0.000000
     2  Sb    c     0.666667    0.333333    0.241202    0.000000
     3  Sb    c     0.000000    1.000000    0.396638    0.000000
     4  Sb    c     0.000000    1.000000    0.574535    0.000000
     5  Sb    c     0.333333    0.666667    0.729972    0.000000
     6  Sb    c     0.333333    0.666667    0.907869    0.000000
     7  Te1   c     0.000000    1.000000    0.985587    0.000000
     8  Te2   c     0.333333    0.666667    0.150819    0.000000
     9  Te2   c     0.000000    1.000000    0.153688    0.000000
    10  Te1   c     0.333333    0.666667    0.318920    0.000000
    11  Te2   c     0.666667    0.333333    0.484152    0.000000
    12  Te2   c     0.333333    0.666667    0.487021    0.000000
    13  Te1   c     0.666667    0.333333    0.652254    0.000000
    14  Te2   c     0.000000    1.000000    0.817486    0.000000
    15  Te2   c     0.666667    0.333333    0.820355    0.000000
--------------------------------------------------------------------------------

  Final Cartesian lattice vectors (Angstroms) :

        3.764762    0.000000    0.000000
       -1.882381    3.260380   -0.000000
        0.000000   -0.000000   23.947736


  Final cell parameters and derivatives :

--------------------------------------------------------------------------------
       a            3.764762 Angstrom     dE/de1(xx)     0.000005 eV/strain
       b            3.764762 Angstrom     dE/de2(yy)     0.000005 eV/strain
       c           23.947736 Angstrom     dE/de3(zz)    -0.000290 eV/strain
       alpha       90.000000 Degrees      dE/de4(yz)    -0.000000 eV/strain
       beta        90.000000 Degrees      dE/de5(xz)     0.000000 eV/strain
       gamma      120.000000 Degrees      dE/de6(xy)     0.000000 eV/strain
--------------------------------------------------------------------------------

  Primitive cell volume =           293.947768 Angs**3

  Density of cell =     10.614255 g/cm**3

  Non-primitive cell volume =           293.947768 Angs**3


  Final internal derivatives :

--------------------------------------------------------------------------------
   No.  Atomic          x             y             z           Radius
        Label          (eV)          (eV)          (eV)        (eV/Angs)
--------------------------------------------------------------------------------
      1 Sb    c       0.000000      0.000000      0.000000      0.000000
      2 Sb    c       0.000000     -0.000000      0.001400      0.000000
      3 Sb    c      -0.000000      0.000000     -0.001253      0.000000
      4 Sb    c       0.000000     -0.000000      0.001316      0.000000
      5 Sb    c      -0.000000      0.000000     -0.001106      0.000000
      6 Sb    c       0.000000     -0.000000      0.000996      0.000000
      7 Te1   c      -0.000000      0.000000     -0.000530      0.000000
      8 Te2   c       0.000000     -0.000000     -0.002350      0.000000
      9 Te2   c       0.000000     -0.000000     -0.001926      0.000000
     10 Te1   c      -0.000000      0.000000     -0.000001      0.000000
     11 Te2   c       0.000000     -0.000000     -0.000016      0.000000
     12 Te2   c      -0.000000      0.000000     -0.000886      0.000000
     13 Te1   c       0.000000     -0.000000      0.000072      0.000000
     14 Te2   c       0.000000     -0.000000      0.000537      0.000000
     15 Te2   c      -0.000000      0.000000      0.001061      0.000000
--------------------------------------------------------------------------------
  Maximum abs         0.000000      0.000000      0.002350      0.000000
--------------------------------------------------------------------------------


  Born effective charge tensors : 

-------------------------------------------------------------------------------
  Atom             x           y             z
-------------------------------------------------------------------------------
   1 Sb    x       0.6200      0.0000      0.0000
           y       0.0000      0.6200      0.0000
           z       0.0000      0.0000      0.6200
-------------------------------------------------------------------------------
   2 Sb    x       0.6200      0.0000      0.0000
           y       0.0000      0.6200      0.0000
           z       0.0000      0.0000      0.6200
-------------------------------------------------------------------------------
   3 Sb    x       0.6200      0.0000      0.0000
           y       0.0000      0.6200      0.0000
           z       0.0000      0.0000      0.6200
-------------------------------------------------------------------------------
   4 Sb    x       0.6200      0.0000      0.0000
           y       0.0000      0.6200      0.0000
           z       0.0000      0.0000      0.6200
-------------------------------------------------------------------------------
   5 Sb    x       0.6200      0.0000      0.0000
           y       0.0000      0.6200      0.0000
           z       0.0000      0.0000      0.6200
-------------------------------------------------------------------------------
   6 Sb    x       0.6200      0.0000      0.0000
           y       0.0000      0.6200      0.0000
           z       0.0000      0.0000      0.6200
-------------------------------------------------------------------------------
   7 Te1   x      -0.5000      0.0000      0.0000
           y       0.0000     -0.5000      0.0000
           z       0.0000      0.0000     -0.5000
-------------------------------------------------------------------------------
   8 Te2   x      -0.3700      0.0000      0.0000
           y       0.0000     -0.3700      0.0000
           z       0.0000      0.0000     -0.3700
-------------------------------------------------------------------------------
   9 Te2   x      -0.3700      0.0000      0.0000
           y       0.0000     -0.3700      0.0000
           z       0.0000      0.0000     -0.3700
-------------------------------------------------------------------------------
  10 Te1   x      -0.5000      0.0000      0.0000
           y       0.0000     -0.5000      0.0000
           z       0.0000      0.0000     -0.5000
-------------------------------------------------------------------------------
  11 Te2   x      -0.3700      0.0000      0.0000
           y       0.0000     -0.3700      0.0000
           z       0.0000      0.0000     -0.3700
-------------------------------------------------------------------------------
  12 Te2   x      -0.3700      0.0000      0.0000
           y       0.0000     -0.3700      0.0000
           z       0.0000      0.0000     -0.3700
-------------------------------------------------------------------------------
  13 Te1   x      -0.5000      0.0000      0.0000
           y       0.0000     -0.5000      0.0000
           z       0.0000      0.0000     -0.5000
-------------------------------------------------------------------------------
  14 Te2   x      -0.3700      0.0000      0.0000
           y       0.0000     -0.3700      0.0000
           z       0.0000      0.0000     -0.3700
-------------------------------------------------------------------------------
  15 Te2   x      -0.3700      0.0000      0.0000
           y       0.0000     -0.3700      0.0000
           z       0.0000      0.0000     -0.3700
-------------------------------------------------------------------------------




  Elastic Constant Matrix: (Units=GPa)

-------------------------------------------------------------------------------
  Indices      1         2         3         4         5         6    
-------------------------------------------------------------------------------
       1     44.9796    1.2748    8.2699   -8.9414   -0.0000   -0.0000
       2      1.2748   44.9796    8.2699    8.9414   -0.0000    0.0000
       3      8.2699    8.2699  202.6621    0.0000   -0.0000    0.0000
       4     -8.9414    8.9414    0.0000   -5.3786    0.0000   -0.0000
       5     -0.0000   -0.0000   -0.0000    0.0000   -5.3786   -8.9414
       6     -0.0000    0.0000    0.0000   -0.0000   -8.9414   21.8524
-------------------------------------------------------------------------------


  Elastic Compliance Matrix: (Units=1/GPa)

-------------------------------------------------------------------------------
  Indices      1         2         3         4         5         6    
-------------------------------------------------------------------------------
       1    0.017779  0.004161 -0.000895 -0.022638 -0.000000 -0.000000
       2    0.004161  0.017779 -0.000895  0.022638 -0.000000  0.000000
       3   -0.000895 -0.000895  0.005007 -0.000000  0.000000 -0.000000
       4   -0.022638  0.022638 -0.000000 -0.110654 -0.000000 -0.000000
       5   -0.000000 -0.000000  0.000000 -0.000000 -0.110654 -0.045277
       6   -0.000000  0.000000 -0.000000 -0.000000 -0.045277  0.027236
-------------------------------------------------------------------------------

 Mechanical properties :

-------------------------------------------------------------------------------
  Convention :                    Reuss         Voigt         Hill
-------------------------------------------------------------------------------
  Bulk  Modulus (GPa)     =      22.07228      36.47228      29.27228
  Shear Modulus (GPa)     =     -34.92925      20.53947      -7.19489
-------------------------------------------------------------------------------
  Velocity S-wave (km/s)  =      -5.73654       4.39896      -2.60356
  Velocity P-wave (km/s)  =       4.80440       7.75646       4.30584
-------------------------------------------------------------------------------
  Compressibility (1/GPa) =    0.04530571
-------------------------------------------------------------------------------
  Stress axis :                     x             y             z
-------------------------------------------------------------------------------
  Youngs Moduli (GPa)     =      56.24678      56.24678     199.70488
-------------------------------------------------------------------------------
  Poissons Ratio (x)      =                    -0.23404       0.17879
  Poissons Ratio (y)      =      -0.23404                     0.17879
  Poissons Ratio (z)      =       0.05036       0.05036
-------------------------------------------------------------------------------


  Piezoelectric Strain Matrix: (Units=C/m**2)

-------------------------------------------------------------------------------
  Indices      1         2         3         4         5         6    
-------------------------------------------------------------------------------
       x     0.00000  -0.00000  -0.00000  -0.00000   0.00001   0.00001
       y     0.00001  -0.00001   0.00000   0.00001  -0.00000   0.00000
       z     0.00001   0.00001   0.00001  -0.00000   0.00000   0.00000
-------------------------------------------------------------------------------


  Piezoelectric Stress Matrix: (Units=10**-11 C/N)

-------------------------------------------------------------------------------
  Indices      1         2         3         4         5         6    
-------------------------------------------------------------------------------
       x     0.00000  -0.00000  -0.00000   0.00000  -0.00021  -0.00002
       y    -0.00001   0.00001   0.00000  -0.00021   0.00000   0.00000
       z     0.00002   0.00002   0.00000   0.00000  -0.00000  -0.00000
-------------------------------------------------------------------------------


  Static dielectric constant tensor : 

-------------------------------------------------------------------------------
              x         y         z
-------------------------------------------------------------------------------
       x    -0.46427  -0.00000   0.00000
       y    -0.00000  -0.46427  -0.00000
       z     0.00000  -0.00000   1.16603
--------------------------------------------------------------------------------

  Static refractive indices : 

-------------------------------------------------------------------------------
    1 =   -0.68137      2 =   -0.68137      3 =    1.07983
-------------------------------------------------------------------------------


  Time to end of optimisation =     379.4317 seconds


  Peak dynamic memory used =       1.80 MB 


  Timing analysis for GULP :

--------------------------------------------------------------------------------
  Task / Subroutine                                          Time (Seconds)
--------------------------------------------------------------------------------
  Calculation of reciprocal space energy and derivatives         22.4534
  Calculation of real space energy and derivatives              345.1536
  Sum of squares for fitting                                      8.3445
  Global summation overhead                                       0.2640
--------------------------------------------------------------------------------
  Total CPU time                                                379.4317
--------------------------------------------------------------------------------


  Dump file written as sb2te3.res                                              



  **** GULP has completed with 131 warnings - beware! ****

  Job Finished at 11:56.03 24th June       2010                               

