********************************************************************************
*                       GENERAL UTILITY LATTICE PROGRAM                        *
*                                 Julian Gale                                  *
*                      Nanochemistry Research Institute                        *
*             Curtin University of Technology, Western Australia               *
********************************************************************************
* Version = 3.4.7 * Last modified =  21st July 2009                            *
********************************************************************************
*  fit          - perform fitting run                                          *
*  optimise     - perform optimisation run after fitting                       *
*  property     - calculate properties for final geometry                      *
*  fbfgs        - use full numerical Hessian in BFGS for fitting               *
********************************************************************************

  Job Started  at 16:28.24 22nd June       2010                               

  Number of CPUs =     1


  Total number of configurations input = 132

********************************************************************************
*  Input for Configuration =   1                                               *
********************************************************************************

  Formula = Sb2Te3                                                      

  Number of irreducible atoms/shells =       5


  Total number atoms/shells =       5

  Dimensionality = 3               :  Bulk   



  Cartesian lattice vectors (Angstroms) :

       -2.504286    0.000000   10.443767
        1.252143   -2.168775   10.443767
        1.252143    2.168775   10.443767

  Cell parameters (Angstroms/Degrees):

  a =      10.7398    alpha =  23.3006
  b =      10.7398    beta  =  23.3006
  c =      10.7398    gamma =  23.3006

  Initial cell volume =         170.167643 Angs**3

  Temperature of configuration =  0.000     K 

  Pressure of configuration =         0.000 GPa 

  Fractional coordinates of asymmetric unit :

--------------------------------------------------------------------------------
   No.  Atomic       x           y          z         Charge      Occupancy
        Label      (Frac)      (Frac)     (Frac)        (e)         (Frac)  
--------------------------------------------------------------------------------
      1 Sb    c    0.369021    0.369021    0.369021      0.6200    1.000000    
      2 Sb    c    0.603203    0.603203    0.603203      0.6200    1.000000    
      3 Te1   c    0.000000    0.000000    0.000000     -0.5000    1.000000    
      4 Te2   c    0.784571    0.784571    0.784571     -0.3700    1.000000    
      5 Te2   c    0.215429    0.215429    0.215429     -0.3700    1.000000    
--------------------------------------------------------------------------------



********************************************************************************
*  Input for Configuration =   2                                               *
********************************************************************************

  Formula = Sb2Te3                                                      

  Number of irreducible atoms/shells =       5


  Total number atoms/shells =       5

  Dimensionality = 3               :  Bulk   



  Cartesian lattice vectors (Angstroms) :

       -2.504286    0.000000   10.443767
        1.252143   -2.168775   10.443767
        1.252143    2.168775   10.443767

  Cell parameters (Angstroms/Degrees):

  a =      10.7398    alpha =  23.3006
  b =      10.7398    beta  =  23.3006
  c =      10.7398    gamma =  23.3006

  Initial cell volume =         170.167643 Angs**3

  Temperature of configuration =  0.000     K 

  Pressure of configuration =         0.000 GPa 

  Fractional coordinates of asymmetric unit :

--------------------------------------------------------------------------------
   No.  Atomic       x           y          z         Charge      Occupancy
        Label      (Frac)      (Frac)     (Frac)        (e)         (Frac)  
--------------------------------------------------------------------------------
      1 Sb    c    0.372989    0.372989    0.372989      0.6200    1.000000    
      2 Sb    c    0.603203    0.603203    0.603203      0.6200    1.000000    
      3 Te1   c    0.000000    0.000000    0.000000     -0.5000    1.000000    
      4 Te2   c    0.784571    0.784571    0.784571     -0.3700    1.000000    
      5 Te2   c    0.215429    0.215429    0.215429     -0.3700    1.000000    
--------------------------------------------------------------------------------



********************************************************************************
*  Input for Configuration =   3                                               *
********************************************************************************

  Formula = Sb2Te3                                                      

  Number of irreducible atoms/shells =       5


  Total number atoms/shells =       5

  Dimensionality = 3               :  Bulk   



  Cartesian lattice vectors (Angstroms) :

       -2.504286    0.000000   10.443767
        1.252143   -2.168775   10.443767
        1.252143    2.168775   10.443767

  Cell parameters (Angstroms/Degrees):

  a =      10.7398    alpha =  23.3006
  b =      10.7398    beta  =  23.3006
  c =      10.7398    gamma =  23.3006

  Initial cell volume =         170.167643 Angs**3

  Temperature of configuration =  0.000     K 

  Pressure of configuration =         0.000 GPa 

  Fractional coordinates of asymmetric unit :

--------------------------------------------------------------------------------
   No.  Atomic       x           y          z         Charge      Occupancy
        Label      (Frac)      (Frac)     (Frac)        (e)         (Frac)  
--------------------------------------------------------------------------------
      1 Sb    c    0.376957    0.376957    0.376957      0.6200    1.000000    
      2 Sb    c    0.603203    0.603203    0.603203      0.6200    1.000000    
      3 Te1   c    0.000000    0.000000    0.000000     -0.5000    1.000000    
      4 Te2   c    0.784571    0.784571    0.784571     -0.3700    1.000000    
      5 Te2   c    0.215429    0.215429    0.215429     -0.3700    1.000000    
--------------------------------------------------------------------------------



********************************************************************************
*  Input for Configuration =   4                                               *
********************************************************************************

  Formula = Sb2Te3                                                      

  Number of irreducible atoms/shells =       5


  Total number atoms/shells =       5

  Dimensionality = 3               :  Bulk   



  Cartesian lattice vectors (Angstroms) :

       -2.504286    0.000000   10.443767
        1.252143   -2.168775   10.443767
        1.252143    2.168775   10.443767

  Cell parameters (Angstroms/Degrees):

  a =      10.7398    alpha =  23.3006
  b =      10.7398    beta  =  23.3006
  c =      10.7398    gamma =  23.3006

  Initial cell volume =         170.167643 Angs**3

  Temperature of configuration =  0.000     K 

  Pressure of configuration =         0.000 GPa 

  Fractional coordinates of asymmetric unit :

--------------------------------------------------------------------------------
   No.  Atomic       x           y          z         Charge      Occupancy
        Label      (Frac)      (Frac)     (Frac)        (e)         (Frac)  
--------------------------------------------------------------------------------
      1 Sb    c    0.380925    0.380925    0.380925      0.6200    1.000000    
      2 Sb    c    0.603203    0.603203    0.603203      0.6200    1.000000    
      3 Te1   c    0.000000    0.000000    0.000000     -0.5000    1.000000    
      4 Te2   c    0.784571    0.784571    0.784571     -0.3700    1.000000    
      5 Te2   c    0.215429    0.215429    0.215429     -0.3700    1.000000    
--------------------------------------------------------------------------------



********************************************************************************
*  Input for Configuration =   5                                               *
********************************************************************************

  Formula = Sb2Te3                                                      

  Number of irreducible atoms/shells =       5


  Total number atoms/shells =       5

  Dimensionality = 3               :  Bulk   



  Cartesian lattice vectors (Angstroms) :

       -2.504286    0.000000   10.443767
        1.252143   -2.168775   10.443767
        1.252143    2.168775   10.443767

  Cell parameters (Angstroms/Degrees):

  a =      10.7398    alpha =  23.3006
  b =      10.7398    beta  =  23.3006
  c =      10.7398    gamma =  23.3006

  Initial cell volume =         170.167643 Angs**3

  Temperature of configuration =  0.000     K 

  Pressure of configuration =         0.000 GPa 

  Fractional coordinates of asymmetric unit :

--------------------------------------------------------------------------------
   No.  Atomic       x           y          z         Charge      Occupancy
        Label      (Frac)      (Frac)     (Frac)        (e)         (Frac)  
--------------------------------------------------------------------------------
      1 Sb    c    0.384893    0.384893    0.384893      0.6200    1.000000    
      2 Sb    c    0.603203    0.603203    0.603203      0.6200    1.000000    
      3 Te1   c    0.000000    0.000000    0.000000     -0.5000    1.000000    
      4 Te2   c    0.784571    0.784571    0.784571     -0.3700    1.000000    
      5 Te2   c    0.215429    0.215429    0.215429     -0.3700    1.000000    
--------------------------------------------------------------------------------



********************************************************************************
*  Input for Configuration =   6                                               *
********************************************************************************

  Formula = Sb2Te3                                                      

  Number of irreducible atoms/shells =       5


  Total number atoms/shells =       5

  Dimensionality = 3               :  Bulk   



  Cartesian lattice vectors (Angstroms) :

       -2.504286    0.000000   10.443767
        1.252143   -2.168775   10.443767
        1.252143    2.168775   10.443767

  Cell parameters (Angstroms/Degrees):

  a =      10.7398    alpha =  23.3006
  b =      10.7398    beta  =  23.3006
  c =      10.7398    gamma =  23.3006

  Initial cell volume =         170.167643 Angs**3

  Temperature of configuration =  0.000     K 

  Pressure of configuration =         0.000 GPa 

  Fractional coordinates of asymmetric unit :

--------------------------------------------------------------------------------
   No.  Atomic       x           y          z         Charge      Occupancy
        Label      (Frac)      (Frac)     (Frac)        (e)         (Frac)  
--------------------------------------------------------------------------------
      1 Sb    c    0.388861    0.388861    0.388861      0.6200    1.000000    
      2 Sb    c    0.603203    0.603203    0.603203      0.6200    1.000000    
      3 Te1   c    0.000000    0.000000    0.000000     -0.5000    1.000000    
      4 Te2   c    0.784571    0.784571    0.784571     -0.3700    1.000000    
      5 Te2   c    0.215429    0.215429    0.215429     -0.3700    1.000000    
--------------------------------------------------------------------------------



********************************************************************************
*  Input for Configuration =   7                                               *
********************************************************************************

  Formula = Sb2Te3                                                      

  Number of irreducible atoms/shells =       5


  Total number atoms/shells =       5

  Dimensionality = 3               :  Bulk   



  Cartesian lattice vectors (Angstroms) :

       -2.504286    0.000000   10.443767
        1.252143   -2.168775   10.443767
        1.252143    2.168775   10.443767

  Cell parameters (Angstroms/Degrees):

  a =      10.7398    alpha =  23.3006
  b =      10.7398    beta  =  23.3006
  c =      10.7398    gamma =  23.3006

  Initial cell volume =         170.167643 Angs**3

  Temperature of configuration =  0.000     K 

  Pressure of configuration =         0.000 GPa 

  Fractional coordinates of asymmetric unit :

--------------------------------------------------------------------------------
   No.  Atomic       x           y          z         Charge      Occupancy
        Label      (Frac)      (Frac)     (Frac)        (e)         (Frac)  
--------------------------------------------------------------------------------
      1 Sb    c    0.392829    0.392829    0.392829      0.6200    1.000000    
      2 Sb    c    0.603203    0.603203    0.603203      0.6200    1.000000    
      3 Te1   c    0.000000    0.000000    0.000000     -0.5000    1.000000    
      4 Te2   c    0.784571    0.784571    0.784571     -0.3700    1.000000    
      5 Te2   c    0.215429    0.215429    0.215429     -0.3700    1.000000    
--------------------------------------------------------------------------------



********************************************************************************
*  Input for Configuration =   8                                               *
********************************************************************************

  Formula = Sb2Te3                                                      

  Number of irreducible atoms/shells =       5


  Total number atoms/shells =       5

  Dimensionality = 3               :  Bulk   



  Cartesian lattice vectors (Angstroms) :

       -2.504286    0.000000   10.443767
        1.252143   -2.168775   10.443767
        1.252143    2.168775   10.443767

  Cell parameters (Angstroms/Degrees):

  a =      10.7398    alpha =  23.3006
  b =      10.7398    beta  =  23.3006
  c =      10.7398    gamma =  23.3006

  Initial cell volume =         170.167643 Angs**3

  Temperature of configuration =  0.000     K 

  Pressure of configuration =         0.000 GPa 

  Fractional coordinates of asymmetric unit :

--------------------------------------------------------------------------------
   No.  Atomic       x           y          z         Charge      Occupancy
        Label      (Frac)      (Frac)     (Frac)        (e)         (Frac)  
--------------------------------------------------------------------------------
      1 Sb    c    0.396797    0.396797    0.396797      0.6200    1.000000    
      2 Sb    c    0.603203    0.603203    0.603203      0.6200    1.000000    
      3 Te1   c    0.000000    0.000000    0.000000     -0.5000    1.000000    
      4 Te2   c    0.784571    0.784571    0.784571     -0.3700    1.000000    
      5 Te2   c    0.215429    0.215429    0.215429     -0.3700    1.000000    
--------------------------------------------------------------------------------



********************************************************************************
*  Input for Configuration =   9                                               *
********************************************************************************

  Formula = Sb2Te3                                                      

  Number of irreducible atoms/shells =       5


  Total number atoms/shells =       5

  Dimensionality = 3               :  Bulk   



  Cartesian lattice vectors (Angstroms) :

       -2.504286    0.000000   10.443767
        1.252143   -2.168775   10.443767
        1.252143    2.168775   10.443767

  Cell parameters (Angstroms/Degrees):

  a =      10.7398    alpha =  23.3006
  b =      10.7398    beta  =  23.3006
  c =      10.7398    gamma =  23.3006

  Initial cell volume =         170.167643 Angs**3

  Temperature of configuration =  0.000     K 

  Pressure of configuration =         0.000 GPa 

  Fractional coordinates of asymmetric unit :

--------------------------------------------------------------------------------
   No.  Atomic       x           y          z         Charge      Occupancy
        Label      (Frac)      (Frac)     (Frac)        (e)         (Frac)  
--------------------------------------------------------------------------------
      1 Sb    c    0.400765    0.400765    0.400765      0.6200    1.000000    
      2 Sb    c    0.603203    0.603203    0.603203      0.6200    1.000000    
      3 Te1   c    0.000000    0.000000    0.000000     -0.5000    1.000000    
      4 Te2   c    0.784571    0.784571    0.784571     -0.3700    1.000000    
      5 Te2   c    0.215429    0.215429    0.215429     -0.3700    1.000000    
--------------------------------------------------------------------------------



********************************************************************************
*  Input for Configuration =  10                                               *
********************************************************************************

  Formula = Sb2Te3                                                      

  Number of irreducible atoms/shells =       5


  Total number atoms/shells =       5

  Dimensionality = 3               :  Bulk   



  Cartesian lattice vectors (Angstroms) :

       -2.504286    0.000000   10.443767
        1.252143   -2.168775   10.443767
        1.252143    2.168775   10.443767

  Cell parameters (Angstroms/Degrees):

  a =      10.7398    alpha =  23.3006
  b =      10.7398    beta  =  23.3006
  c =      10.7398    gamma =  23.3006

  Initial cell volume =         170.167643 Angs**3

  Temperature of configuration =  0.000     K 

  Pressure of configuration =         0.000 GPa 

  Fractional coordinates of asymmetric unit :

--------------------------------------------------------------------------------
   No.  Atomic       x           y          z         Charge      Occupancy
        Label      (Frac)      (Frac)     (Frac)        (e)         (Frac)  
--------------------------------------------------------------------------------
      1 Sb    c    0.404733    0.404733    0.404733      0.6200    1.000000    
      2 Sb    c    0.603203    0.603203    0.603203      0.6200    1.000000    
      3 Te1   c    0.000000    0.000000    0.000000     -0.5000    1.000000    
      4 Te2   c    0.784571    0.784571    0.784571     -0.3700    1.000000    
      5 Te2   c    0.215429    0.215429    0.215429     -0.3700    1.000000    
--------------------------------------------------------------------------------



********************************************************************************
*  Input for Configuration =  11                                               *
********************************************************************************

  Formula = Sb2Te3                                                      

  Number of irreducible atoms/shells =       5


  Total number atoms/shells =       5

  Dimensionality = 3               :  Bulk   



  Cartesian lattice vectors (Angstroms) :

       -2.504286    0.000000   10.443767
        1.252143   -2.168775   10.443767
        1.252143    2.168775   10.443767

  Cell parameters (Angstroms/Degrees):

  a =      10.7398    alpha =  23.3006
  b =      10.7398    beta  =  23.3006
  c =      10.7398    gamma =  23.3006

  Initial cell volume =         170.167643 Angs**3

  Temperature of configuration =  0.000     K 

  Pressure of configuration =         0.000 GPa 

  Fractional coordinates of asymmetric unit :

--------------------------------------------------------------------------------
   No.  Atomic       x           y          z         Charge      Occupancy
        Label      (Frac)      (Frac)     (Frac)        (e)         (Frac)  
--------------------------------------------------------------------------------
      1 Sb    c    0.408700    0.408700    0.408700      0.6200    1.000000    
      2 Sb    c    0.603203    0.603203    0.603203      0.6200    1.000000    
      3 Te1   c    0.000000    0.000000    0.000000     -0.5000    1.000000    
      4 Te2   c    0.784571    0.784571    0.784571     -0.3700    1.000000    
      5 Te2   c    0.215429    0.215429    0.215429     -0.3700    1.000000    
--------------------------------------------------------------------------------



********************************************************************************
*  Input for Configuration =  12                                               *
********************************************************************************

  Formula = Sb2Te3                                                      

  Number of irreducible atoms/shells =       5


  Total number atoms/shells =       5

  Dimensionality = 3               :  Bulk   



  Cartesian lattice vectors (Angstroms) :

       -2.504286    0.000000   10.443767
        1.252143   -2.168775   10.443767
        1.252143    2.168775   10.443767

  Cell parameters (Angstroms/Degrees):

  a =      10.7398    alpha =  23.3006
  b =      10.7398    beta  =  23.3006
  c =      10.7398    gamma =  23.3006

  Initial cell volume =         170.167643 Angs**3

  Temperature of configuration =  0.000     K 

  Pressure of configuration =         0.000 GPa 

  Fractional coordinates of asymmetric unit :

--------------------------------------------------------------------------------
   No.  Atomic       x           y          z         Charge      Occupancy
        Label      (Frac)      (Frac)     (Frac)        (e)         (Frac)  
--------------------------------------------------------------------------------
      1 Sb    c    0.412668    0.412668    0.412668      0.6200    1.000000    
      2 Sb    c    0.603203    0.603203    0.603203      0.6200    1.000000    
      3 Te1   c    0.000000    0.000000    0.000000     -0.5000    1.000000    
      4 Te2   c    0.784571    0.784571    0.784571     -0.3700    1.000000    
      5 Te2   c    0.215429    0.215429    0.215429     -0.3700    1.000000    
--------------------------------------------------------------------------------



********************************************************************************
*  Input for Configuration =  13                                               *
********************************************************************************

  Formula = Sb2Te3                                                      

  Number of irreducible atoms/shells =       5


  Total number atoms/shells =       5

  Dimensionality = 3               :  Bulk   



  Cartesian lattice vectors (Angstroms) :

       -2.504286    0.000000   10.443767
        1.252143   -2.168775   10.443767
        1.252143    2.168775   10.443767

  Cell parameters (Angstroms/Degrees):

  a =      10.7398    alpha =  23.3006
  b =      10.7398    beta  =  23.3006
  c =      10.7398    gamma =  23.3006

  Initial cell volume =         170.167643 Angs**3

  Temperature of configuration =  0.000     K 

  Pressure of configuration =         0.000 GPa 

  Fractional coordinates of asymmetric unit :

--------------------------------------------------------------------------------
   No.  Atomic       x           y          z         Charge      Occupancy
        Label      (Frac)      (Frac)     (Frac)        (e)         (Frac)  
--------------------------------------------------------------------------------
      1 Sb    c    0.416636    0.416636    0.416636      0.6200    1.000000    
      2 Sb    c    0.603203    0.603203    0.603203      0.6200    1.000000    
      3 Te1   c    0.000000    0.000000    0.000000     -0.5000    1.000000    
      4 Te2   c    0.784571    0.784571    0.784571     -0.3700    1.000000    
      5 Te2   c    0.215429    0.215429    0.215429     -0.3700    1.000000    
--------------------------------------------------------------------------------



********************************************************************************
*  Input for Configuration =  14                                               *
********************************************************************************

  Formula = Sb2Te3                                                      

  Number of irreducible atoms/shells =       5


  Total number atoms/shells =       5

  Dimensionality = 3               :  Bulk   



  Cartesian lattice vectors (Angstroms) :

       -2.504286    0.000000   10.443767
        1.252143   -2.168775   10.443767
        1.252143    2.168775   10.443767

  Cell parameters (Angstroms/Degrees):

  a =      10.7398    alpha =  23.3006
  b =      10.7398    beta  =  23.3006
  c =      10.7398    gamma =  23.3006

  Initial cell volume =         170.167643 Angs**3

  Temperature of configuration =  0.000     K 

  Pressure of configuration =         0.000 GPa 

  Fractional coordinates of asymmetric unit :

--------------------------------------------------------------------------------
   No.  Atomic       x           y          z         Charge      Occupancy
        Label      (Frac)      (Frac)     (Frac)        (e)         (Frac)  
--------------------------------------------------------------------------------
      1 Sb    c    0.420604    0.420604    0.420604      0.6200    1.000000    
      2 Sb    c    0.603203    0.603203    0.603203      0.6200    1.000000    
      3 Te1   c    0.000000    0.000000    0.000000     -0.5000    1.000000    
      4 Te2   c    0.784571    0.784571    0.784571     -0.3700    1.000000    
      5 Te2   c    0.215429    0.215429    0.215429     -0.3700    1.000000    
--------------------------------------------------------------------------------



********************************************************************************
*  Input for Configuration =  15                                               *
********************************************************************************

  Formula = Sb2Te3                                                      

  Number of irreducible atoms/shells =       5


  Total number atoms/shells =       5

  Dimensionality = 3               :  Bulk   



  Cartesian lattice vectors (Angstroms) :

       -2.504286    0.000000   10.443767
        1.252143   -2.168775   10.443767
        1.252143    2.168775   10.443767

  Cell parameters (Angstroms/Degrees):

  a =      10.7398    alpha =  23.3006
  b =      10.7398    beta  =  23.3006
  c =      10.7398    gamma =  23.3006

  Initial cell volume =         170.167643 Angs**3

  Temperature of configuration =  0.000     K 

  Pressure of configuration =         0.000 GPa 

  Fractional coordinates of asymmetric unit :

--------------------------------------------------------------------------------
   No.  Atomic       x           y          z         Charge      Occupancy
        Label      (Frac)      (Frac)     (Frac)        (e)         (Frac)  
--------------------------------------------------------------------------------
      1 Sb    c    0.424572    0.424572    0.424572      0.6200    1.000000    
      2 Sb    c    0.603203    0.603203    0.603203      0.6200    1.000000    
      3 Te1   c    0.000000    0.000000    0.000000     -0.5000    1.000000    
      4 Te2   c    0.784571    0.784571    0.784571     -0.3700    1.000000    
      5 Te2   c    0.215429    0.215429    0.215429     -0.3700    1.000000    
--------------------------------------------------------------------------------



********************************************************************************
*  Input for Configuration =  16                                               *
********************************************************************************

  Formula = Sb2Te3                                                      

  Number of irreducible atoms/shells =       5


  Total number atoms/shells =       5

  Dimensionality = 3               :  Bulk   



  Cartesian lattice vectors (Angstroms) :

       -2.504286    0.000000   10.443767
        1.252143   -2.168775   10.443767
        1.252143    2.168775   10.443767

  Cell parameters (Angstroms/Degrees):

  a =      10.7398    alpha =  23.3006
  b =      10.7398    beta  =  23.3006
  c =      10.7398    gamma =  23.3006

  Initial cell volume =         170.167643 Angs**3

  Temperature of configuration =  0.000     K 

  Pressure of configuration =         0.000 GPa 

  Fractional coordinates of asymmetric unit :

--------------------------------------------------------------------------------
   No.  Atomic       x           y          z         Charge      Occupancy
        Label      (Frac)      (Frac)     (Frac)        (e)         (Frac)  
--------------------------------------------------------------------------------
      1 Sb    c    0.396797    0.396797    0.396797      0.6200    1.000000    
      2 Sb    c    0.560979    0.560979    0.560979      0.6200    1.000000    
      3 Te1   c    0.000000    0.000000    0.000000     -0.5000    1.000000    
      4 Te2   c    0.784571    0.784571    0.784571     -0.3700    1.000000    
      5 Te2   c    0.215429    0.215429    0.215429     -0.3700    1.000000    
--------------------------------------------------------------------------------



********************************************************************************
*  Input for Configuration =  17                                               *
********************************************************************************

  Formula = Sb2Te3                                                      

  Number of irreducible atoms/shells =       5


  Total number atoms/shells =       5

  Dimensionality = 3               :  Bulk   



  Cartesian lattice vectors (Angstroms) :

       -2.504286    0.000000   10.443767
        1.252143   -2.168775   10.443767
        1.252143    2.168775   10.443767

  Cell parameters (Angstroms/Degrees):

  a =      10.7398    alpha =  23.3006
  b =      10.7398    beta  =  23.3006
  c =      10.7398    gamma =  23.3006

  Initial cell volume =         170.167643 Angs**3

  Temperature of configuration =  0.000     K 

  Pressure of configuration =         0.000 GPa 

  Fractional coordinates of asymmetric unit :

--------------------------------------------------------------------------------
   No.  Atomic       x           y          z         Charge      Occupancy
        Label      (Frac)      (Frac)     (Frac)        (e)         (Frac)  
--------------------------------------------------------------------------------
      1 Sb    c    0.396797    0.396797    0.396797      0.6200    1.000000    
      2 Sb    c    0.567011    0.567011    0.567011      0.6200    1.000000    
      3 Te1   c    0.000000    0.000000    0.000000     -0.5000    1.000000    
      4 Te2   c    0.784571    0.784571    0.784571     -0.3700    1.000000    
      5 Te2   c    0.215429    0.215429    0.215429     -0.3700    1.000000    
--------------------------------------------------------------------------------



********************************************************************************
*  Input for Configuration =  18                                               *
********************************************************************************

  Formula = Sb2Te3                                                      

  Number of irreducible atoms/shells =       5


  Total number atoms/shells =       5

  Dimensionality = 3               :  Bulk   



  Cartesian lattice vectors (Angstroms) :

       -2.504286    0.000000   10.443767
        1.252143   -2.168775   10.443767
        1.252143    2.168775   10.443767

  Cell parameters (Angstroms/Degrees):

  a =      10.7398    alpha =  23.3006
  b =      10.7398    beta  =  23.3006
  c =      10.7398    gamma =  23.3006

  Initial cell volume =         170.167643 Angs**3

  Temperature of configuration =  0.000     K 

  Pressure of configuration =         0.000 GPa 

  Fractional coordinates of asymmetric unit :

--------------------------------------------------------------------------------
   No.  Atomic       x           y          z         Charge      Occupancy
        Label      (Frac)      (Frac)     (Frac)        (e)         (Frac)  
--------------------------------------------------------------------------------
      1 Sb    c    0.396797    0.396797    0.396797      0.6200    1.000000    
      2 Sb    c    0.573043    0.573043    0.573043      0.6200    1.000000    
      3 Te1   c    0.000000    0.000000    0.000000     -0.5000    1.000000    
      4 Te2   c    0.784571    0.784571    0.784571     -0.3700    1.000000    
      5 Te2   c    0.215429    0.215429    0.215429     -0.3700    1.000000    
--------------------------------------------------------------------------------



********************************************************************************
*  Input for Configuration =  19                                               *
********************************************************************************

  Formula = Sb2Te3                                                      

  Number of irreducible atoms/shells =       5


  Total number atoms/shells =       5

  Dimensionality = 3               :  Bulk   



  Cartesian lattice vectors (Angstroms) :

       -2.504286    0.000000   10.443767
        1.252143   -2.168775   10.443767
        1.252143    2.168775   10.443767

  Cell parameters (Angstroms/Degrees):

  a =      10.7398    alpha =  23.3006
  b =      10.7398    beta  =  23.3006
  c =      10.7398    gamma =  23.3006

  Initial cell volume =         170.167643 Angs**3

  Temperature of configuration =  0.000     K 

  Pressure of configuration =         0.000 GPa 

  Fractional coordinates of asymmetric unit :

--------------------------------------------------------------------------------
   No.  Atomic       x           y          z         Charge      Occupancy
        Label      (Frac)      (Frac)     (Frac)        (e)         (Frac)  
--------------------------------------------------------------------------------
      1 Sb    c    0.396797    0.396797    0.396797      0.6200    1.000000    
      2 Sb    c    0.579075    0.579075    0.579075      0.6200    1.000000    
      3 Te1   c    0.000000    0.000000    0.000000     -0.5000    1.000000    
      4 Te2   c    0.784571    0.784571    0.784571     -0.3700    1.000000    
      5 Te2   c    0.215429    0.215429    0.215429     -0.3700    1.000000    
--------------------------------------------------------------------------------



********************************************************************************
*  Input for Configuration =  20                                               *
********************************************************************************

  Formula = Sb2Te3                                                      

  Number of irreducible atoms/shells =       5


  Total number atoms/shells =       5

  Dimensionality = 3               :  Bulk   



  Cartesian lattice vectors (Angstroms) :

       -2.504286    0.000000   10.443767
        1.252143   -2.168775   10.443767
        1.252143    2.168775   10.443767

  Cell parameters (Angstroms/Degrees):

  a =      10.7398    alpha =  23.3006
  b =      10.7398    beta  =  23.3006
  c =      10.7398    gamma =  23.3006

  Initial cell volume =         170.167643 Angs**3

  Temperature of configuration =  0.000     K 

  Pressure of configuration =         0.000 GPa 

  Fractional coordinates of asymmetric unit :

--------------------------------------------------------------------------------
   No.  Atomic       x           y          z         Charge      Occupancy
        Label      (Frac)      (Frac)     (Frac)        (e)         (Frac)  
--------------------------------------------------------------------------------
      1 Sb    c    0.396797    0.396797    0.396797      0.6200    1.000000    
      2 Sb    c    0.585107    0.585107    0.585107      0.6200    1.000000    
      3 Te1   c    0.000000    0.000000    0.000000     -0.5000    1.000000    
      4 Te2   c    0.784571    0.784571    0.784571     -0.3700    1.000000    
      5 Te2   c    0.215429    0.215429    0.215429     -0.3700    1.000000    
--------------------------------------------------------------------------------



********************************************************************************
*  Input for Configuration =  21                                               *
********************************************************************************

  Formula = Sb2Te3                                                      

  Number of irreducible atoms/shells =       5


  Total number atoms/shells =       5

  Dimensionality = 3               :  Bulk   



  Cartesian lattice vectors (Angstroms) :

       -2.504286    0.000000   10.443767
        1.252143   -2.168775   10.443767
        1.252143    2.168775   10.443767

  Cell parameters (Angstroms/Degrees):

  a =      10.7398    alpha =  23.3006
  b =      10.7398    beta  =  23.3006
  c =      10.7398    gamma =  23.3006

  Initial cell volume =         170.167643 Angs**3

  Temperature of configuration =  0.000     K 

  Pressure of configuration =         0.000 GPa 

  Fractional coordinates of asymmetric unit :

--------------------------------------------------------------------------------
   No.  Atomic       x           y          z         Charge      Occupancy
        Label      (Frac)      (Frac)     (Frac)        (e)         (Frac)  
--------------------------------------------------------------------------------
      1 Sb    c    0.396797    0.396797    0.396797      0.6200    1.000000    
      2 Sb    c    0.591139    0.591139    0.591139      0.6200    1.000000    
      3 Te1   c    0.000000    0.000000    0.000000     -0.5000    1.000000    
      4 Te2   c    0.784571    0.784571    0.784571     -0.3700    1.000000    
      5 Te2   c    0.215429    0.215429    0.215429     -0.3700    1.000000    
--------------------------------------------------------------------------------



********************************************************************************
*  Input for Configuration =  22                                               *
********************************************************************************

  Formula = Sb2Te3                                                      

  Number of irreducible atoms/shells =       5


  Total number atoms/shells =       5

  Dimensionality = 3               :  Bulk   



  Cartesian lattice vectors (Angstroms) :

       -2.504286    0.000000   10.443767
        1.252143   -2.168775   10.443767
        1.252143    2.168775   10.443767

  Cell parameters (Angstroms/Degrees):

  a =      10.7398    alpha =  23.3006
  b =      10.7398    beta  =  23.3006
  c =      10.7398    gamma =  23.3006

  Initial cell volume =         170.167643 Angs**3

  Temperature of configuration =  0.000     K 

  Pressure of configuration =         0.000 GPa 

  Fractional coordinates of asymmetric unit :

--------------------------------------------------------------------------------
   No.  Atomic       x           y          z         Charge      Occupancy
        Label      (Frac)      (Frac)     (Frac)        (e)         (Frac)  
--------------------------------------------------------------------------------
      1 Sb    c    0.396797    0.396797    0.396797      0.6200    1.000000    
      2 Sb    c    0.597171    0.597171    0.597171      0.6200    1.000000    
      3 Te1   c    0.000000    0.000000    0.000000     -0.5000    1.000000    
      4 Te2   c    0.784571    0.784571    0.784571     -0.3700    1.000000    
      5 Te2   c    0.215429    0.215429    0.215429     -0.3700    1.000000    
--------------------------------------------------------------------------------



********************************************************************************
*  Input for Configuration =  23                                               *
********************************************************************************

  Formula = Sb2Te3                                                      

  Number of irreducible atoms/shells =       5


  Total number atoms/shells =       5

  Dimensionality = 3               :  Bulk   



  Cartesian lattice vectors (Angstroms) :

       -2.504286    0.000000   10.443767
        1.252143   -2.168775   10.443767
        1.252143    2.168775   10.443767

  Cell parameters (Angstroms/Degrees):

  a =      10.7398    alpha =  23.3006
  b =      10.7398    beta  =  23.3006
  c =      10.7398    gamma =  23.3006

  Initial cell volume =         170.167643 Angs**3

  Temperature of configuration =  0.000     K 

  Pressure of configuration =         0.000 GPa 

  Fractional coordinates of asymmetric unit :

--------------------------------------------------------------------------------
   No.  Atomic       x           y          z         Charge      Occupancy
        Label      (Frac)      (Frac)     (Frac)        (e)         (Frac)  
--------------------------------------------------------------------------------
      1 Sb    c    0.396797    0.396797    0.396797      0.6200    1.000000    
      2 Sb    c    0.603203    0.603203    0.603203      0.6200    1.000000    
      3 Te1   c    0.000000    0.000000    0.000000     -0.5000    1.000000    
      4 Te2   c    0.784571    0.784571    0.784571     -0.3700    1.000000    
      5 Te2   c    0.215429    0.215429    0.215429     -0.3700    1.000000    
--------------------------------------------------------------------------------



********************************************************************************
*  Input for Configuration =  24                                               *
********************************************************************************

  Formula = Sb2Te3                                                      

  Number of irreducible atoms/shells =       5


  Total number atoms/shells =       5

  Dimensionality = 3               :  Bulk   



  Cartesian lattice vectors (Angstroms) :

       -2.504286    0.000000   10.443767
        1.252143   -2.168775   10.443767
        1.252143    2.168775   10.443767

  Cell parameters (Angstroms/Degrees):

  a =      10.7398    alpha =  23.3006
  b =      10.7398    beta  =  23.3006
  c =      10.7398    gamma =  23.3006

  Initial cell volume =         170.167643 Angs**3

  Temperature of configuration =  0.000     K 

  Pressure of configuration =         0.000 GPa 

  Fractional coordinates of asymmetric unit :

--------------------------------------------------------------------------------
   No.  Atomic       x           y          z         Charge      Occupancy
        Label      (Frac)      (Frac)     (Frac)        (e)         (Frac)  
--------------------------------------------------------------------------------
      1 Sb    c    0.396797    0.396797    0.396797      0.6200    1.000000    
      2 Sb    c    0.609235    0.609235    0.609235      0.6200    1.000000    
      3 Te1   c    0.000000    0.000000    0.000000     -0.5000    1.000000    
      4 Te2   c    0.784571    0.784571    0.784571     -0.3700    1.000000    
      5 Te2   c    0.215429    0.215429    0.215429     -0.3700    1.000000    
--------------------------------------------------------------------------------



********************************************************************************
*  Input for Configuration =  25                                               *
********************************************************************************

  Formula = Sb2Te3                                                      

  Number of irreducible atoms/shells =       5


  Total number atoms/shells =       5

  Dimensionality = 3               :  Bulk   



  Cartesian lattice vectors (Angstroms) :

       -2.504286    0.000000   10.443767
        1.252143   -2.168775   10.443767
        1.252143    2.168775   10.443767

  Cell parameters (Angstroms/Degrees):

  a =      10.7398    alpha =  23.3006
  b =      10.7398    beta  =  23.3006
  c =      10.7398    gamma =  23.3006

  Initial cell volume =         170.167643 Angs**3

  Temperature of configuration =  0.000     K 

  Pressure of configuration =         0.000 GPa 

  Fractional coordinates of asymmetric unit :

--------------------------------------------------------------------------------
   No.  Atomic       x           y          z         Charge      Occupancy
        Label      (Frac)      (Frac)     (Frac)        (e)         (Frac)  
--------------------------------------------------------------------------------
      1 Sb    c    0.396797    0.396797    0.396797      0.6200    1.000000    
      2 Sb    c    0.615267    0.615267    0.615267      0.6200    1.000000    
      3 Te1   c    0.000000    0.000000    0.000000     -0.5000    1.000000    
      4 Te2   c    0.784571    0.784571    0.784571     -0.3700    1.000000    
      5 Te2   c    0.215429    0.215429    0.215429     -0.3700    1.000000    
--------------------------------------------------------------------------------



********************************************************************************
*  Input for Configuration =  26                                               *
********************************************************************************

  Formula = Sb2Te3                                                      

  Number of irreducible atoms/shells =       5


  Total number atoms/shells =       5

  Dimensionality = 3               :  Bulk   



  Cartesian lattice vectors (Angstroms) :

       -2.504286    0.000000   10.443767
        1.252143   -2.168775   10.443767
        1.252143    2.168775   10.443767

  Cell parameters (Angstroms/Degrees):

  a =      10.7398    alpha =  23.3006
  b =      10.7398    beta  =  23.3006
  c =      10.7398    gamma =  23.3006

  Initial cell volume =         170.167643 Angs**3

  Temperature of configuration =  0.000     K 

  Pressure of configuration =         0.000 GPa 

  Fractional coordinates of asymmetric unit :

--------------------------------------------------------------------------------
   No.  Atomic       x           y          z         Charge      Occupancy
        Label      (Frac)      (Frac)     (Frac)        (e)         (Frac)  
--------------------------------------------------------------------------------
      1 Sb    c    0.396797    0.396797    0.396797      0.6200    1.000000    
      2 Sb    c    0.621300    0.621300    0.621300      0.6200    1.000000    
      3 Te1   c    0.000000    0.000000    0.000000     -0.5000    1.000000    
      4 Te2   c    0.784571    0.784571    0.784571     -0.3700    1.000000    
      5 Te2   c    0.215429    0.215429    0.215429     -0.3700    1.000000    
--------------------------------------------------------------------------------



********************************************************************************
*  Input for Configuration =  27                                               *
********************************************************************************

  Formula = Sb2Te3                                                      

  Number of irreducible atoms/shells =       5


  Total number atoms/shells =       5

  Dimensionality = 3               :  Bulk   



  Cartesian lattice vectors (Angstroms) :

       -2.504286    0.000000   10.443767
        1.252143   -2.168775   10.443767
        1.252143    2.168775   10.443767

  Cell parameters (Angstroms/Degrees):

  a =      10.7398    alpha =  23.3006
  b =      10.7398    beta  =  23.3006
  c =      10.7398    gamma =  23.3006

  Initial cell volume =         170.167643 Angs**3

  Temperature of configuration =  0.000     K 

  Pressure of configuration =         0.000 GPa 

  Fractional coordinates of asymmetric unit :

--------------------------------------------------------------------------------
   No.  Atomic       x           y          z         Charge      Occupancy
        Label      (Frac)      (Frac)     (Frac)        (e)         (Frac)  
--------------------------------------------------------------------------------
      1 Sb    c    0.396797    0.396797    0.396797      0.6200    1.000000    
      2 Sb    c    0.627332    0.627332    0.627332      0.6200    1.000000    
      3 Te1   c    0.000000    0.000000    0.000000     -0.5000    1.000000    
      4 Te2   c    0.784571    0.784571    0.784571     -0.3700    1.000000    
      5 Te2   c    0.215429    0.215429    0.215429     -0.3700    1.000000    
--------------------------------------------------------------------------------



********************************************************************************
*  Input for Configuration =  28                                               *
********************************************************************************

  Formula = Sb2Te3                                                      

  Number of irreducible atoms/shells =       5


  Total number atoms/shells =       5

  Dimensionality = 3               :  Bulk   



  Cartesian lattice vectors (Angstroms) :

       -2.504286    0.000000   10.443767
        1.252143   -2.168775   10.443767
        1.252143    2.168775   10.443767

  Cell parameters (Angstroms/Degrees):

  a =      10.7398    alpha =  23.3006
  b =      10.7398    beta  =  23.3006
  c =      10.7398    gamma =  23.3006

  Initial cell volume =         170.167643 Angs**3

  Temperature of configuration =  0.000     K 

  Pressure of configuration =         0.000 GPa 

  Fractional coordinates of asymmetric unit :

--------------------------------------------------------------------------------
   No.  Atomic       x           y          z         Charge      Occupancy
        Label      (Frac)      (Frac)     (Frac)        (e)         (Frac)  
--------------------------------------------------------------------------------
      1 Sb    c    0.396797    0.396797    0.396797      0.6200    1.000000    
      2 Sb    c    0.633364    0.633364    0.633364      0.6200    1.000000    
      3 Te1   c    0.000000    0.000000    0.000000     -0.5000    1.000000    
      4 Te2   c    0.784571    0.784571    0.784571     -0.3700    1.000000    
      5 Te2   c    0.215429    0.215429    0.215429     -0.3700    1.000000    
--------------------------------------------------------------------------------



********************************************************************************
*  Input for Configuration =  29                                               *
********************************************************************************

  Formula = Sb2Te3                                                      

  Number of irreducible atoms/shells =       5


  Total number atoms/shells =       5

  Dimensionality = 3               :  Bulk   



  Cartesian lattice vectors (Angstroms) :

       -2.504286    0.000000   10.443767
        1.252143   -2.168775   10.443767
        1.252143    2.168775   10.443767

  Cell parameters (Angstroms/Degrees):

  a =      10.7398    alpha =  23.3006
  b =      10.7398    beta  =  23.3006
  c =      10.7398    gamma =  23.3006

  Initial cell volume =         170.167643 Angs**3

  Temperature of configuration =  0.000     K 

  Pressure of configuration =         0.000 GPa 

  Fractional coordinates of asymmetric unit :

--------------------------------------------------------------------------------
   No.  Atomic       x           y          z         Charge      Occupancy
        Label      (Frac)      (Frac)     (Frac)        (e)         (Frac)  
--------------------------------------------------------------------------------
      1 Sb    c    0.396797    0.396797    0.396797      0.6200    1.000000    
      2 Sb    c    0.639396    0.639396    0.639396      0.6200    1.000000    
      3 Te1   c    0.000000    0.000000    0.000000     -0.5000    1.000000    
      4 Te2   c    0.784571    0.784571    0.784571     -0.3700    1.000000    
      5 Te2   c    0.215429    0.215429    0.215429     -0.3700    1.000000    
--------------------------------------------------------------------------------



********************************************************************************
*  Input for Configuration =  30                                               *
********************************************************************************

  Formula = Sb2Te3                                                      

  Number of irreducible atoms/shells =       5


  Total number atoms/shells =       5

  Dimensionality = 3               :  Bulk   



  Cartesian lattice vectors (Angstroms) :

       -2.504286    0.000000   10.443767
        1.252143   -2.168775   10.443767
        1.252143    2.168775   10.443767

  Cell parameters (Angstroms/Degrees):

  a =      10.7398    alpha =  23.3006
  b =      10.7398    beta  =  23.3006
  c =      10.7398    gamma =  23.3006

  Initial cell volume =         170.167643 Angs**3

  Temperature of configuration =  0.000     K 

  Pressure of configuration =         0.000 GPa 

  Fractional coordinates of asymmetric unit :

--------------------------------------------------------------------------------
   No.  Atomic       x           y          z         Charge      Occupancy
        Label      (Frac)      (Frac)     (Frac)        (e)         (Frac)  
--------------------------------------------------------------------------------
      1 Sb    c    0.396797    0.396797    0.396797      0.6200    1.000000    
      2 Sb    c    0.645428    0.645428    0.645428      0.6200    1.000000    
      3 Te1   c    0.000000    0.000000    0.000000     -0.5000    1.000000    
      4 Te2   c    0.784571    0.784571    0.784571     -0.3700    1.000000    
      5 Te2   c    0.215429    0.215429    0.215429     -0.3700    1.000000    
--------------------------------------------------------------------------------



********************************************************************************
*  Input for Configuration =  31                                               *
********************************************************************************

  Formula = Sb2Te3                                                      

  Number of irreducible atoms/shells =       5


  Total number atoms/shells =       5

  Dimensionality = 3               :  Bulk   



  Cartesian lattice vectors (Angstroms) :

       -2.504286    0.000000   10.443767
        1.252143   -2.168775   10.443767
        1.252143    2.168775   10.443767

  Cell parameters (Angstroms/Degrees):

  a =      10.7398    alpha =  23.3006
  b =      10.7398    beta  =  23.3006
  c =      10.7398    gamma =  23.3006

  Initial cell volume =         170.167643 Angs**3

  Temperature of configuration =  0.000     K 

  Pressure of configuration =         0.000 GPa 

  Fractional coordinates of asymmetric unit :

--------------------------------------------------------------------------------
   No.  Atomic       x           y          z         Charge      Occupancy
        Label      (Frac)      (Frac)     (Frac)        (e)         (Frac)  
--------------------------------------------------------------------------------
      1 Sb    c    0.396797    0.396797    0.396797      0.6200    1.000000    
      2 Sb    c    0.603203    0.603203    0.603203      0.6200    1.000000    
      3 Te1   c    0.930000    0.930000    0.930000     -0.5000    1.000000    
      4 Te2   c    0.784571    0.784571    0.784571     -0.3700    1.000000    
      5 Te2   c    0.215429    0.215429    0.215429     -0.3700    1.000000    
--------------------------------------------------------------------------------



********************************************************************************
*  Input for Configuration =  32                                               *
********************************************************************************

  Formula = Sb2Te3                                                      

  Number of irreducible atoms/shells =       5


  Total number atoms/shells =       5

  Dimensionality = 3               :  Bulk   



  Cartesian lattice vectors (Angstroms) :

       -2.504286    0.000000   10.443767
        1.252143   -2.168775   10.443767
        1.252143    2.168775   10.443767

  Cell parameters (Angstroms/Degrees):

  a =      10.7398    alpha =  23.3006
  b =      10.7398    beta  =  23.3006
  c =      10.7398    gamma =  23.3006

  Initial cell volume =         170.167643 Angs**3

  Temperature of configuration =  0.000     K 

  Pressure of configuration =         0.000 GPa 

  Fractional coordinates of asymmetric unit :

--------------------------------------------------------------------------------
   No.  Atomic       x           y          z         Charge      Occupancy
        Label      (Frac)      (Frac)     (Frac)        (e)         (Frac)  
--------------------------------------------------------------------------------
      1 Sb    c    0.396797    0.396797    0.396797      0.6200    1.000000    
      2 Sb    c    0.603203    0.603203    0.603203      0.6200    1.000000    
      3 Te1   c    0.940000    0.940000    0.940000     -0.5000    1.000000    
      4 Te2   c    0.784571    0.784571    0.784571     -0.3700    1.000000    
      5 Te2   c    0.215429    0.215429    0.215429     -0.3700    1.000000    
--------------------------------------------------------------------------------



********************************************************************************
*  Input for Configuration =  33                                               *
********************************************************************************

  Formula = Sb2Te3                                                      

  Number of irreducible atoms/shells =       5


  Total number atoms/shells =       5

  Dimensionality = 3               :  Bulk   



  Cartesian lattice vectors (Angstroms) :

       -2.504286    0.000000   10.443767
        1.252143   -2.168775   10.443767
        1.252143    2.168775   10.443767

  Cell parameters (Angstroms/Degrees):

  a =      10.7398    alpha =  23.3006
  b =      10.7398    beta  =  23.3006
  c =      10.7398    gamma =  23.3006

  Initial cell volume =         170.167643 Angs**3

  Temperature of configuration =  0.000     K 

  Pressure of configuration =         0.000 GPa 

  Fractional coordinates of asymmetric unit :

--------------------------------------------------------------------------------
   No.  Atomic       x           y          z         Charge      Occupancy
        Label      (Frac)      (Frac)     (Frac)        (e)         (Frac)  
--------------------------------------------------------------------------------
      1 Sb    c    0.396797    0.396797    0.396797      0.6200    1.000000    
      2 Sb    c    0.603203    0.603203    0.603203      0.6200    1.000000    
      3 Te1   c    0.950000    0.950000    0.950000     -0.5000    1.000000    
      4 Te2   c    0.784571    0.784571    0.784571     -0.3700    1.000000    
      5 Te2   c    0.215429    0.215429    0.215429     -0.3700    1.000000    
--------------------------------------------------------------------------------



********************************************************************************
*  Input for Configuration =  34                                               *
********************************************************************************

  Formula = Sb2Te3                                                      

  Number of irreducible atoms/shells =       5


  Total number atoms/shells =       5

  Dimensionality = 3               :  Bulk   



  Cartesian lattice vectors (Angstroms) :

       -2.504286    0.000000   10.443767
        1.252143   -2.168775   10.443767
        1.252143    2.168775   10.443767

  Cell parameters (Angstroms/Degrees):

  a =      10.7398    alpha =  23.3006
  b =      10.7398    beta  =  23.3006
  c =      10.7398    gamma =  23.3006

  Initial cell volume =         170.167643 Angs**3

  Temperature of configuration =  0.000     K 

  Pressure of configuration =         0.000 GPa 

  Fractional coordinates of asymmetric unit :

--------------------------------------------------------------------------------
   No.  Atomic       x           y          z         Charge      Occupancy
        Label      (Frac)      (Frac)     (Frac)        (e)         (Frac)  
--------------------------------------------------------------------------------
      1 Sb    c    0.396797    0.396797    0.396797      0.6200    1.000000    
      2 Sb    c    0.603203    0.603203    0.603203      0.6200    1.000000    
      3 Te1   c    0.960000    0.960000    0.960000     -0.5000    1.000000    
      4 Te2   c    0.784571    0.784571    0.784571     -0.3700    1.000000    
      5 Te2   c    0.215429    0.215429    0.215429     -0.3700    1.000000    
--------------------------------------------------------------------------------



********************************************************************************
*  Input for Configuration =  35                                               *
********************************************************************************

  Formula = Sb2Te3                                                      

  Number of irreducible atoms/shells =       5


  Total number atoms/shells =       5

  Dimensionality = 3               :  Bulk   



  Cartesian lattice vectors (Angstroms) :

       -2.504286    0.000000   10.443767
        1.252143   -2.168775   10.443767
        1.252143    2.168775   10.443767

  Cell parameters (Angstroms/Degrees):

  a =      10.7398    alpha =  23.3006
  b =      10.7398    beta  =  23.3006
  c =      10.7398    gamma =  23.3006

  Initial cell volume =         170.167643 Angs**3

  Temperature of configuration =  0.000     K 

  Pressure of configuration =         0.000 GPa 

  Fractional coordinates of asymmetric unit :

--------------------------------------------------------------------------------
   No.  Atomic       x           y          z         Charge      Occupancy
        Label      (Frac)      (Frac)     (Frac)        (e)         (Frac)  
--------------------------------------------------------------------------------
      1 Sb    c    0.396797    0.396797    0.396797      0.6200    1.000000    
      2 Sb    c    0.603203    0.603203    0.603203      0.6200    1.000000    
      3 Te1   c    0.970000    0.970000    0.970000     -0.5000    1.000000    
      4 Te2   c    0.784571    0.784571    0.784571     -0.3700    1.000000    
      5 Te2   c    0.215429    0.215429    0.215429     -0.3700    1.000000    
--------------------------------------------------------------------------------



********************************************************************************
*  Input for Configuration =  36                                               *
********************************************************************************

  Formula = Sb2Te3                                                      

  Number of irreducible atoms/shells =       5


  Total number atoms/shells =       5

  Dimensionality = 3               :  Bulk   



  Cartesian lattice vectors (Angstroms) :

       -2.504286    0.000000   10.443767
        1.252143   -2.168775   10.443767
        1.252143    2.168775   10.443767

  Cell parameters (Angstroms/Degrees):

  a =      10.7398    alpha =  23.3006
  b =      10.7398    beta  =  23.3006
  c =      10.7398    gamma =  23.3006

  Initial cell volume =         170.167643 Angs**3

  Temperature of configuration =  0.000     K 

  Pressure of configuration =         0.000 GPa 

  Fractional coordinates of asymmetric unit :

--------------------------------------------------------------------------------
   No.  Atomic       x           y          z         Charge      Occupancy
        Label      (Frac)      (Frac)     (Frac)        (e)         (Frac)  
--------------------------------------------------------------------------------
      1 Sb    c    0.396797    0.396797    0.396797      0.6200    1.000000    
      2 Sb    c    0.603203    0.603203    0.603203      0.6200    1.000000    
      3 Te1   c    0.980000    0.980000    0.980000     -0.5000    1.000000    
      4 Te2   c    0.784571    0.784571    0.784571     -0.3700    1.000000    
      5 Te2   c    0.215429    0.215429    0.215429     -0.3700    1.000000    
--------------------------------------------------------------------------------



********************************************************************************
*  Input for Configuration =  37                                               *
********************************************************************************

  Formula = Sb2Te3                                                      

  Number of irreducible atoms/shells =       5


  Total number atoms/shells =       5

  Dimensionality = 3               :  Bulk   



  Cartesian lattice vectors (Angstroms) :

       -2.504286    0.000000   10.443767
        1.252143   -2.168775   10.443767
        1.252143    2.168775   10.443767

  Cell parameters (Angstroms/Degrees):

  a =      10.7398    alpha =  23.3006
  b =      10.7398    beta  =  23.3006
  c =      10.7398    gamma =  23.3006

  Initial cell volume =         170.167643 Angs**3

  Temperature of configuration =  0.000     K 

  Pressure of configuration =         0.000 GPa 

  Fractional coordinates of asymmetric unit :

--------------------------------------------------------------------------------
   No.  Atomic       x           y          z         Charge      Occupancy
        Label      (Frac)      (Frac)     (Frac)        (e)         (Frac)  
--------------------------------------------------------------------------------
      1 Sb    c    0.396797    0.396797    0.396797      0.6200    1.000000    
      2 Sb    c    0.603203    0.603203    0.603203      0.6200    1.000000    
      3 Te1   c    0.990000    0.990000    0.990000     -0.5000    1.000000    
      4 Te2   c    0.784571    0.784571    0.784571     -0.3700    1.000000    
      5 Te2   c    0.215429    0.215429    0.215429     -0.3700    1.000000    
--------------------------------------------------------------------------------



********************************************************************************
*  Input for Configuration =  38                                               *
********************************************************************************

  Formula = Sb2Te3                                                      

  Number of irreducible atoms/shells =       5


  Total number atoms/shells =       5

  Dimensionality = 3               :  Bulk   



  Cartesian lattice vectors (Angstroms) :

       -2.504286    0.000000   10.443767
        1.252143   -2.168775   10.443767
        1.252143    2.168775   10.443767

  Cell parameters (Angstroms/Degrees):

  a =      10.7398    alpha =  23.3006
  b =      10.7398    beta  =  23.3006
  c =      10.7398    gamma =  23.3006

  Initial cell volume =         170.167643 Angs**3

  Temperature of configuration =  0.000     K 

  Pressure of configuration =         0.000 GPa 

  Fractional coordinates of asymmetric unit :

--------------------------------------------------------------------------------
   No.  Atomic       x           y          z         Charge      Occupancy
        Label      (Frac)      (Frac)     (Frac)        (e)         (Frac)  
--------------------------------------------------------------------------------
      1 Sb    c    0.396797    0.396797    0.396797      0.6200    1.000000    
      2 Sb    c    0.603203    0.603203    0.603203      0.6200    1.000000    
      3 Te1   c    0.000000    0.000000    0.000000     -0.5000    1.000000    
      4 Te2   c    0.784571    0.784571    0.784571     -0.3700    1.000000    
      5 Te2   c    0.215429    0.215429    0.215429     -0.3700    1.000000    
--------------------------------------------------------------------------------



********************************************************************************
*  Input for Configuration =  39                                               *
********************************************************************************

  Formula = Sb2Te3                                                      

  Number of irreducible atoms/shells =       5


  Total number atoms/shells =       5

  Dimensionality = 3               :  Bulk   



  Cartesian lattice vectors (Angstroms) :

       -2.504286    0.000000   10.443767
        1.252143   -2.168775   10.443767
        1.252143    2.168775   10.443767

  Cell parameters (Angstroms/Degrees):

  a =      10.7398    alpha =  23.3006
  b =      10.7398    beta  =  23.3006
  c =      10.7398    gamma =  23.3006

  Initial cell volume =         170.167643 Angs**3

  Temperature of configuration =  0.000     K 

  Pressure of configuration =         0.000 GPa 

  Fractional coordinates of asymmetric unit :

--------------------------------------------------------------------------------
   No.  Atomic       x           y          z         Charge      Occupancy
        Label      (Frac)      (Frac)     (Frac)        (e)         (Frac)  
--------------------------------------------------------------------------------
      1 Sb    c    0.396797    0.396797    0.396797      0.6200    1.000000    
      2 Sb    c    0.603203    0.603203    0.603203      0.6200    1.000000    
      3 Te1   c    0.010000    0.010000    0.010000     -0.5000    1.000000    
      4 Te2   c    0.784571    0.784571    0.784571     -0.3700    1.000000    
      5 Te2   c    0.215429    0.215429    0.215429     -0.3700    1.000000    
--------------------------------------------------------------------------------



********************************************************************************
*  Input for Configuration =  40                                               *
********************************************************************************

  Formula = Sb2Te3                                                      

  Number of irreducible atoms/shells =       5


  Total number atoms/shells =       5

  Dimensionality = 3               :  Bulk   



  Cartesian lattice vectors (Angstroms) :

       -2.504286    0.000000   10.443767
        1.252143   -2.168775   10.443767
        1.252143    2.168775   10.443767

  Cell parameters (Angstroms/Degrees):

  a =      10.7398    alpha =  23.3006
  b =      10.7398    beta  =  23.3006
  c =      10.7398    gamma =  23.3006

  Initial cell volume =         170.167643 Angs**3

  Temperature of configuration =  0.000     K 

  Pressure of configuration =         0.000 GPa 

  Fractional coordinates of asymmetric unit :

--------------------------------------------------------------------------------
   No.  Atomic       x           y          z         Charge      Occupancy
        Label      (Frac)      (Frac)     (Frac)        (e)         (Frac)  
--------------------------------------------------------------------------------
      1 Sb    c    0.396797    0.396797    0.396797      0.6200    1.000000    
      2 Sb    c    0.603203    0.603203    0.603203      0.6200    1.000000    
      3 Te1   c    0.020000    0.020000    0.020000     -0.5000    1.000000    
      4 Te2   c    0.784571    0.784571    0.784571     -0.3700    1.000000    
      5 Te2   c    0.215429    0.215429    0.215429     -0.3700    1.000000    
--------------------------------------------------------------------------------



********************************************************************************
*  Input for Configuration =  41                                               *
********************************************************************************

  Formula = Sb2Te3                                                      

  Number of irreducible atoms/shells =       5


  Total number atoms/shells =       5

  Dimensionality = 3               :  Bulk   



  Cartesian lattice vectors (Angstroms) :

       -2.504286    0.000000   10.443767
        1.252143   -2.168775   10.443767
        1.252143    2.168775   10.443767

  Cell parameters (Angstroms/Degrees):

  a =      10.7398    alpha =  23.3006
  b =      10.7398    beta  =  23.3006
  c =      10.7398    gamma =  23.3006

  Initial cell volume =         170.167643 Angs**3

  Temperature of configuration =  0.000     K 

  Pressure of configuration =         0.000 GPa 

  Fractional coordinates of asymmetric unit :

--------------------------------------------------------------------------------
   No.  Atomic       x           y          z         Charge      Occupancy
        Label      (Frac)      (Frac)     (Frac)        (e)         (Frac)  
--------------------------------------------------------------------------------
      1 Sb    c    0.396797    0.396797    0.396797      0.6200    1.000000    
      2 Sb    c    0.603203    0.603203    0.603203      0.6200    1.000000    
      3 Te1   c    0.030000    0.030000    0.030000     -0.5000    1.000000    
      4 Te2   c    0.784571    0.784571    0.784571     -0.3700    1.000000    
      5 Te2   c    0.215429    0.215429    0.215429     -0.3700    1.000000    
--------------------------------------------------------------------------------



********************************************************************************
*  Input for Configuration =  42                                               *
********************************************************************************

  Formula = Sb2Te3                                                      

  Number of irreducible atoms/shells =       5


  Total number atoms/shells =       5

  Dimensionality = 3               :  Bulk   



  Cartesian lattice vectors (Angstroms) :

       -2.504286    0.000000   10.443767
        1.252143   -2.168775   10.443767
        1.252143    2.168775   10.443767

  Cell parameters (Angstroms/Degrees):

  a =      10.7398    alpha =  23.3006
  b =      10.7398    beta  =  23.3006
  c =      10.7398    gamma =  23.3006

  Initial cell volume =         170.167643 Angs**3

  Temperature of configuration =  0.000     K 

  Pressure of configuration =         0.000 GPa 

  Fractional coordinates of asymmetric unit :

--------------------------------------------------------------------------------
   No.  Atomic       x           y          z         Charge      Occupancy
        Label      (Frac)      (Frac)     (Frac)        (e)         (Frac)  
--------------------------------------------------------------------------------
      1 Sb    c    0.396797    0.396797    0.396797      0.6200    1.000000    
      2 Sb    c    0.603203    0.603203    0.603203      0.6200    1.000000    
      3 Te1   c    0.040000    0.040000    0.040000     -0.5000    1.000000    
      4 Te2   c    0.784571    0.784571    0.784571     -0.3700    1.000000    
      5 Te2   c    0.215429    0.215429    0.215429     -0.3700    1.000000    
--------------------------------------------------------------------------------



********************************************************************************
*  Input for Configuration =  43                                               *
********************************************************************************

  Formula = Sb2Te3                                                      

  Number of irreducible atoms/shells =       5


  Total number atoms/shells =       5

  Dimensionality = 3               :  Bulk   



  Cartesian lattice vectors (Angstroms) :

       -2.504286    0.000000   10.443767
        1.252143   -2.168775   10.443767
        1.252143    2.168775   10.443767

  Cell parameters (Angstroms/Degrees):

  a =      10.7398    alpha =  23.3006
  b =      10.7398    beta  =  23.3006
  c =      10.7398    gamma =  23.3006

  Initial cell volume =         170.167643 Angs**3

  Temperature of configuration =  0.000     K 

  Pressure of configuration =         0.000 GPa 

  Fractional coordinates of asymmetric unit :

--------------------------------------------------------------------------------
   No.  Atomic       x           y          z         Charge      Occupancy
        Label      (Frac)      (Frac)     (Frac)        (e)         (Frac)  
--------------------------------------------------------------------------------
      1 Sb    c    0.396797    0.396797    0.396797      0.6200    1.000000    
      2 Sb    c    0.603203    0.603203    0.603203      0.6200    1.000000    
      3 Te1   c    0.050000    0.050000    0.050000     -0.5000    1.000000    
      4 Te2   c    0.784571    0.784571    0.784571     -0.3700    1.000000    
      5 Te2   c    0.215429    0.215429    0.215429     -0.3700    1.000000    
--------------------------------------------------------------------------------



********************************************************************************
*  Input for Configuration =  44                                               *
********************************************************************************

  Formula = Sb2Te3                                                      

  Number of irreducible atoms/shells =       5


  Total number atoms/shells =       5

  Dimensionality = 3               :  Bulk   



  Cartesian lattice vectors (Angstroms) :

       -2.504286    0.000000   10.443767
        1.252143   -2.168775   10.443767
        1.252143    2.168775   10.443767

  Cell parameters (Angstroms/Degrees):

  a =      10.7398    alpha =  23.3006
  b =      10.7398    beta  =  23.3006
  c =      10.7398    gamma =  23.3006

  Initial cell volume =         170.167643 Angs**3

  Temperature of configuration =  0.000     K 

  Pressure of configuration =         0.000 GPa 

  Fractional coordinates of asymmetric unit :

--------------------------------------------------------------------------------
   No.  Atomic       x           y          z         Charge      Occupancy
        Label      (Frac)      (Frac)     (Frac)        (e)         (Frac)  
--------------------------------------------------------------------------------
      1 Sb    c    0.396797    0.396797    0.396797      0.6200    1.000000    
      2 Sb    c    0.603203    0.603203    0.603203      0.6200    1.000000    
      3 Te1   c    0.060000    0.060000    0.060000     -0.5000    1.000000    
      4 Te2   c    0.784571    0.784571    0.784571     -0.3700    1.000000    
      5 Te2   c    0.215429    0.215429    0.215429     -0.3700    1.000000    
--------------------------------------------------------------------------------



********************************************************************************
*  Input for Configuration =  45                                               *
********************************************************************************

  Formula = Sb2Te3                                                      

  Number of irreducible atoms/shells =       5


  Total number atoms/shells =       5

  Dimensionality = 3               :  Bulk   



  Cartesian lattice vectors (Angstroms) :

       -2.504286    0.000000   10.443767
        1.252143   -2.168775   10.443767
        1.252143    2.168775   10.443767

[...]



!!!!!!!!!!!!!!!!!!!!!!!!!!!!!!!!!!!!!!!!!!!!!!!!!!!!!!!!!!!!!!!!!!!!!!!!!!!!!!!!
!! WARNING : No variables to optimise - single point performed
!!!!!!!!!!!!!!!!!!!!!!!!!!!!!!!!!!!!!!!!!!!!!!!!!!!!!!!!!!!!!!!!!!!!!!!!!!!!!!!!


  Components of energy : 

--------------------------------------------------------------------------------
  Interatomic potentials     =          -2.01252726 eV
  Monopole - monopole (real) =          -1.02420233 eV
  Monopole - monopole (recip)=          -3.12536551 eV
  Monopole - monopole (total)=          -4.14956784 eV
  Energy shift               =         -10.70969368 eV
--------------------------------------------------------------------------------
  Total lattice energy       =         -16.87178878 eV
--------------------------------------------------------------------------------
  Total lattice energy       =           -1627.8697 kJ/(mole unit cells)
--------------------------------------------------------------------------------

  Born effective charge tensors : 

-------------------------------------------------------------------------------
  Atom             x           y             z
-------------------------------------------------------------------------------
   1 Sb    x       0.6200      0.0000      0.0000
           y       0.0000      0.6200      0.0000
           z       0.0000      0.0000      0.6200
-------------------------------------------------------------------------------
   2 Sb    x       0.6200      0.0000      0.0000
           y       0.0000      0.6200      0.0000
           z       0.0000      0.0000      0.6200
-------------------------------------------------------------------------------
   3 Te1   x      -0.5000      0.0000      0.0000
           y       0.0000     -0.5000      0.0000
           z       0.0000      0.0000     -0.5000
-------------------------------------------------------------------------------
   4 Te2   x      -0.3700      0.0000      0.0000
           y       0.0000     -0.3700      0.0000
           z       0.0000      0.0000     -0.3700
-------------------------------------------------------------------------------
   5 Te2   x      -0.3700      0.0000      0.0000
           y       0.0000     -0.3700      0.0000
           z       0.0000      0.0000     -0.3700
-------------------------------------------------------------------------------




  Elastic Constant Matrix: (Units=GPa)

-------------------------------------------------------------------------------
  Indices      1         2         3         4         5         6    
-------------------------------------------------------------------------------
       1     19.1810    5.4127   -4.9036    0.0000   -4.3274    0.0000
       2      5.4127   19.1810   -4.9036    0.0000    4.3274    0.0000
       3     -4.9036   -4.9036   33.5859    0.0000    0.0000    0.0000
       4      0.0000    0.0000    0.0000    0.7533    0.0000    4.3274
       5     -4.3274    4.3274    0.0000    0.0000    0.7533    0.0000
       6      0.0000    0.0000    0.0000    4.3274    0.0000    6.8842
-------------------------------------------------------------------------------


  Elastic Compliance Matrix: (Units=1/GPa)

-------------------------------------------------------------------------------
  Indices      1         2         3         4         5         6    
-------------------------------------------------------------------------------
       1    0.007680  0.035495  0.006303 -0.000000 -0.159792  0.000000
       2    0.035495  0.007680  0.006303  0.000000  0.159792 -0.000000
       3    0.006303  0.006303  0.031615  0.000000  0.000000 -0.000000
       4   -0.000000  0.000000  0.000000 -0.508404 -0.000000  0.319583
       5   -0.159792  0.159792  0.000000 -0.000000 -0.508404  0.000000
       6    0.000000 -0.000000 -0.000000  0.319583  0.000000 -0.055630
-------------------------------------------------------------------------------

 Mechanical properties :

-------------------------------------------------------------------------------
  Convention :                    Reuss         Voigt         Hill
-------------------------------------------------------------------------------
  Bulk  Modulus (GPa)     =       6.98432       7.01768       7.00100
  Shear Modulus (GPa)     =      -4.65575       6.76764       1.05594
-------------------------------------------------------------------------------
  Velocity S-wave (km/s)  =      -3.27146       3.94425       1.55800
  Velocity P-wave (km/s)  =       1.33616       6.07246       4.39660
-------------------------------------------------------------------------------
  Compressibility (1/GPa) =    0.14317776
-------------------------------------------------------------------------------
  Stress axis :                     x             y             z
-------------------------------------------------------------------------------
  Youngs Moduli (GPa)     =     130.21182     130.21182      31.63057
-------------------------------------------------------------------------------
  Poissons Ratio (x)      =                    -4.62182      -0.19938
  Poissons Ratio (y)      =      -4.62182                    -0.19938
  Poissons Ratio (z)      =      -0.82079      -0.82079
-------------------------------------------------------------------------------


  Piezoelectric Strain Matrix: (Units=C/m**2)

-------------------------------------------------------------------------------
  Indices      1         2         3         4         5         6    
-------------------------------------------------------------------------------
       x     0.00002  -0.00002  -0.00000  -0.00000  -0.00002   0.00000
       y    -0.00000  -0.00000  -0.00000  -0.00002  -0.00000  -0.00002
       z    -0.00000  -0.00000  -0.00000  -0.00000   0.00000   0.00000
-------------------------------------------------------------------------------


  Piezoelectric Stress Matrix: (Units=10**-11 C/N)

-------------------------------------------------------------------------------
  Indices      1         2         3         4         5         6    
-------------------------------------------------------------------------------
       x     0.00022  -0.00022  -0.00000   0.00000   0.00030  -0.00000
       y     0.00000  -0.00000  -0.00000   0.00030   0.00000  -0.00045
       z    -0.00000  -0.00000  -0.00000   0.00000  -0.00000  -0.00000
-------------------------------------------------------------------------------


  Static dielectric constant tensor : 

-------------------------------------------------------------------------------
              x         y         z
-------------------------------------------------------------------------------
       x    15.26541  -0.00000  -0.00000
       y    -0.00000  15.26541  -0.00000
       z    -0.00000  -0.00000   0.35385
--------------------------------------------------------------------------------

  Static refractive indices : 

-------------------------------------------------------------------------------
    1 =    0.59485      2 =    3.90710      3 =    3.90710
-------------------------------------------------------------------------------


  Time to end of properties =     955.9757 seconds


********************************************************************************
*  Output for configuration 132                                                *
********************************************************************************


  Components of energy : 

--------------------------------------------------------------------------------
  Interatomic potentials     =          -2.99940239 eV
  Monopole - monopole (real) =          -1.14710661 eV
  Monopole - monopole (recip)=          -3.50040937 eV
  Monopole - monopole (total)=          -4.64751598 eV
  Energy shift               =         -10.70969368 eV
--------------------------------------------------------------------------------
  Total lattice energy       =         -18.35661205 eV
--------------------------------------------------------------------------------
  Total lattice energy       =           -1771.1325 kJ/(mole unit cells)
--------------------------------------------------------------------------------


  Number of variables =     18

  Maximum number of calculations  =          1000
  Maximum Hessian update interval =            10
  Maximum step size               =   1.000000000
  Maximum parameter tolerance     =   0.000010000
  Maximum function  tolerance     =   0.000010000
  Maximum gradient  tolerance     =   0.001000000
  Maximum gradient  component     =   0.010000000

  Symmetry not applied to optimisation

  Cell parameters to be optimised using strains

  Newton-Raphson optimiser to be used

  BFGS hessian update to be used

  Dumpfile to be written after every cycle

  Start of bulk optimisation :

  Cycle:      0 Energy:       -18.356612  Gnorm:      0.043399  CPU:  956.004
  ** Hessian calculated **
  Cycle:      1 Energy:       -18.363563  Gnorm:      0.009190  CPU:  956.008
  Cycle:      2 Energy:       -18.363579  Gnorm:      0.001007  CPU:  956.040


  **** Optimisation achieved ****


  Final energy =     -18.36357893 eV
  Final Gnorm  =       0.00015982

  Components of energy : 

--------------------------------------------------------------------------------
  Interatomic potentials     =          -2.97237827 eV
  Monopole - monopole (real) =          -1.15769368 eV
  Monopole - monopole (recip)=          -3.52381330 eV
  Monopole - monopole (total)=          -4.68150698 eV
  Energy shift               =         -10.70969368 eV
--------------------------------------------------------------------------------
  Total lattice energy       =         -18.36357893 eV
--------------------------------------------------------------------------------
  Total lattice energy       =           -1771.8047 kJ/(mole unit cells)
--------------------------------------------------------------------------------

  Final fractional coordinates of atoms :

--------------------------------------------------------------------------------
   No.  Atomic        x           y          z          Radius
        Label       (Frac)      (Frac)     (Frac)       (Angs) 
--------------------------------------------------------------------------------
     1  Sb    c     0.396797    0.396797    0.396797    0.000000
     2  Sb    c     0.603584    0.603584    0.603584    0.000000
     3  Te1   c     0.000190    0.000190    0.000190    0.000000
     4  Te2   c     0.784803    0.784803    0.784803    0.000000
     5  Te2   c     0.215578    0.215578    0.215578    0.000000
--------------------------------------------------------------------------------

  Final Cartesian lattice vectors (Angstroms) :

       -2.518185    0.000000   10.254086
        1.259093   -2.180813   10.254086
        1.259093    2.180813   10.254086


  Final cell parameters and derivatives :

--------------------------------------------------------------------------------
       a           10.558765 Angstrom     dE/de1(xx)     0.000104 eV/strain
       b           10.558765 Angstrom     dE/de2(yy)     0.000104 eV/strain
       c           10.558765 Angstrom     dE/de3(zz)    -0.000076 eV/strain
       alpha       23.839385 Degrees      dE/de4(yz)    -0.000000 eV/strain
       beta        23.839385 Degrees      dE/de5(xz)    -0.000000 eV/strain
       gamma       23.839385 Degrees      dE/de6(xy)    -0.000000 eV/strain
--------------------------------------------------------------------------------

  Primitive cell volume =           168.936787 Angs**3

  Density of cell =      6.156221 g/cm**3

  Non-primitive cell volume =           168.936787 Angs**3


  Final internal derivatives :

--------------------------------------------------------------------------------
   No.  Atomic          x             y             z           Radius
        Label          (eV)          (eV)          (eV)        (eV/Angs)
--------------------------------------------------------------------------------
      1 Sb    c       0.000000      0.000000      0.000000      0.000000
      2 Sb    c      -0.000230     -0.000230     -0.000230      0.000000
      3 Te1   c       0.000000      0.000000      0.000000      0.000000
      4 Te2   c       0.001161      0.001161      0.001161      0.000000
      5 Te2   c      -0.001161     -0.001161     -0.001161      0.000000
--------------------------------------------------------------------------------
  Maximum abs         0.001161      0.001161      0.001161      0.000000
--------------------------------------------------------------------------------


  Born effective charge tensors : 

-------------------------------------------------------------------------------
  Atom             x           y             z
-------------------------------------------------------------------------------
   1 Sb    x       0.6200      0.0000      0.0000
           y       0.0000      0.6200      0.0000
           z       0.0000      0.0000      0.6200
-------------------------------------------------------------------------------
   2 Sb    x       0.6200      0.0000      0.0000
           y       0.0000      0.6200      0.0000
           z       0.0000      0.0000      0.6200
-------------------------------------------------------------------------------
   3 Te1   x      -0.5000      0.0000      0.0000
           y       0.0000     -0.5000      0.0000
           z       0.0000      0.0000     -0.5000
-------------------------------------------------------------------------------
   4 Te2   x      -0.3700      0.0000      0.0000
           y       0.0000     -0.3700      0.0000
           z       0.0000      0.0000     -0.3700
-------------------------------------------------------------------------------
   5 Te2   x      -0.3700      0.0000      0.0000
           y       0.0000     -0.3700      0.0000
           z       0.0000      0.0000     -0.3700
-------------------------------------------------------------------------------




  Elastic Constant Matrix: (Units=GPa)

-------------------------------------------------------------------------------
  Indices      1         2         3         4         5         6    
-------------------------------------------------------------------------------
       1     38.6521   20.3190   20.1566    0.0000    0.6319   -0.0000
       2     20.3190   38.6521   20.1566   -0.0000   -0.6319    0.0000
       3     20.1566   20.1566   53.4688    0.0000   -0.0000    0.0000
       4      0.0000   -0.0000    0.0000   12.5657    0.0000   -0.6319
       5      0.6319   -0.6319   -0.0000    0.0000   12.5657   -0.0000
       6     -0.0000    0.0000    0.0000   -0.6319   -0.0000    9.1666
-------------------------------------------------------------------------------


  Elastic Compliance Matrix: (Units=1/GPa)

-------------------------------------------------------------------------------
  Indices      1         2         3         4         5         6    
-------------------------------------------------------------------------------
       1    0.038790 -0.015946 -0.008612  0.000000 -0.002753  0.000000
       2   -0.015946  0.038790 -0.008612  0.000000  0.002753 -0.000000
       3   -0.008612 -0.008612  0.025196 -0.000000 -0.000000  0.000000
       4    0.000000  0.000000 -0.000000  0.079859 -0.000000  0.005505
       5   -0.002753  0.002753 -0.000000 -0.000000  0.079859  0.000000
       6    0.000000 -0.000000  0.000000  0.005505  0.000000  0.109472
-------------------------------------------------------------------------------

 Mechanical properties :

-------------------------------------------------------------------------------
  Convention :                    Reuss         Voigt         Hill
-------------------------------------------------------------------------------
  Bulk  Modulus (GPa)     =      27.44458      28.00415      27.72436
  Shear Modulus (GPa)     =      11.10001      11.53564      11.31782
-------------------------------------------------------------------------------
  Velocity S-wave (km/s)  =       4.24624       4.32876       4.28770
  Velocity P-wave (km/s)  =       8.28378       8.39484       8.33950
-------------------------------------------------------------------------------
  Compressibility (1/GPa) =    0.03643707
-------------------------------------------------------------------------------
  Stress axis :                     x             y             z
-------------------------------------------------------------------------------
  Youngs Moduli (GPa)     =      25.77968      25.77968      39.68962
-------------------------------------------------------------------------------
  Poissons Ratio (x)      =                     0.41107       0.34180
  Poissons Ratio (y)      =       0.41107                     0.34180
  Poissons Ratio (z)      =       0.22201       0.22201
-------------------------------------------------------------------------------


  Piezoelectric Strain Matrix: (Units=C/m**2)

-------------------------------------------------------------------------------
  Indices      1         2         3         4         5         6    
-------------------------------------------------------------------------------
       x    -0.00000   0.00000   0.00000   0.00000  -0.00000  -0.00000
       y     0.00000   0.00000   0.00000  -0.00000   0.00000   0.00000
       z    -0.00000  -0.00000  -0.00000   0.00000   0.00000   0.00000
-------------------------------------------------------------------------------


  Piezoelectric Stress Matrix: (Units=10**-11 C/N)

-------------------------------------------------------------------------------
  Indices      1         2         3         4         5         6    
-------------------------------------------------------------------------------
       x    -0.00000   0.00000   0.00000   0.00000  -0.00000  -0.00000
       y    -0.00000  -0.00000   0.00000  -0.00000   0.00000   0.00000
       z    -0.00000  -0.00000  -0.00000   0.00000   0.00000   0.00000
-------------------------------------------------------------------------------


  Static dielectric constant tensor : 

-------------------------------------------------------------------------------
              x         y         z
-------------------------------------------------------------------------------
       x     1.64602  -0.00000   0.00000
       y    -0.00000   1.64602  -0.00000
       z     0.00000  -0.00000   1.21147
--------------------------------------------------------------------------------

  Static refractive indices : 

-------------------------------------------------------------------------------
    1 =    1.10067      2 =    1.28298      3 =    1.28298
-------------------------------------------------------------------------------


  Time to end of optimisation =     956.0717 seconds


  Peak dynamic memory used =       1.62 MB 


  Timing analysis for GULP :

--------------------------------------------------------------------------------
  Task / Subroutine                                          Time (Seconds)
--------------------------------------------------------------------------------
  Calculation of reciprocal space energy and derivatives         64.0159
  Calculation of real space energy and derivatives              862.2859
  Sum of squares for fitting                                     22.8575
  Global summation overhead                                       1.0361
--------------------------------------------------------------------------------
  Total CPU time                                                956.0717
--------------------------------------------------------------------------------


  Dump file written as sb2te3.res                                              



  **** GULP has completed with 131 warnings - beware! ****

  Job Finished at 16:57.34 22nd June       2010                               

