********************************************************************************
*                       GENERAL UTILITY LATTICE PROGRAM                        *
*                                 Julian Gale                                  *
*                      Nanochemistry Research Institute                        *
*             Curtin University of Technology, Western Australia               *
********************************************************************************
* Version = 3.4.7 * Last modified =  21st July 2009                            *
********************************************************************************
*  optimise     - perform optimisation run                                     *
*  property     - calculate properties for final geometry                      *
********************************************************************************

  Job Started  at 11:05.41 24th June       2010                               

  Number of CPUs =     1


  Total number of configurations input =   1

********************************************************************************
*  Input for Configuration =   1                                               *
********************************************************************************

  Formula = Sb6Te9                                                      

  Number of irreducible atoms/shells =      15


  Total number atoms/shells =      15

  Dimensionality = 3               :  Bulk   



  Cartesian lattice vectors (Angstroms) :

        4.330000    0.000000    0.000000
       -2.165000    3.749890    0.000000
        0.000000    0.000000   31.432900

  Cell parameters (Angstroms/Degrees):

  a =       4.3300    alpha =  90.0000
  b =       4.3300    beta  =  90.0000
  c =      31.4329    gamma = 120.0000

  Initial cell volume =         510.376742 Angs**3

  Temperature of configuration =  0.000     K 

  Pressure of configuration =         0.000 GPa 

  Fractional coordinates of asymmetric unit :

--------------------------------------------------------------------------------
   No.  Atomic       x           y          z         Charge      Occupancy
        Label      (Frac)      (Frac)     (Frac)        (e)         (Frac)  
--------------------------------------------------------------------------------
      1 Sb    c    0.666667    0.333333    0.063305      0.6200    1.000000    
      2 Sb    c    0.666667 *  0.333333 *  0.270028 *    0.6200    1.000000    
      3 Sb    c    0.000000 *  0.000000 *  0.396639 *    0.6200    1.000000    
      4 Sb    c    0.000000 *  0.000000 *  0.603361 *    0.6200    1.000000    
      5 Sb    c    0.333333 *  0.666667 *  0.729972 *    0.6200    1.000000    
      6 Sb    c    0.333333 *  0.666667 *  0.936695 *    0.6200    1.000000    
      7 Te1   c    0.000000 *  0.000000 *  0.000000 *   -0.5000    1.000000    
      8 Te2   c    0.333333 *  0.666667 *  0.117591 *   -0.3700    1.000000    
      9 Te2   c    0.000000 *  0.000000 *  0.215743 *   -0.3700    1.000000    
     10 Te1   c    0.333333 *  0.666667 *  0.333333 *   -0.5000    1.000000    
     11 Te2   c    0.666667 *  0.333333 *  0.450924 *   -0.3700    1.000000    
     12 Te2   c    0.333333 *  0.666667 *  0.549076 *   -0.3700    1.000000    
     13 Te1   c    0.666667 *  0.333333 *  0.666667 *   -0.5000    1.000000    
     14 Te2   c    0.000000 *  0.000000 *  0.784257 *   -0.3700    1.000000    
     15 Te2   c    0.666667 *  0.333333 *  0.882409 *   -0.3700    1.000000    
--------------------------------------------------------------------------------



********************************************************************************
*  General input information                                                   *
********************************************************************************

  Species output for all configurations : 

--------------------------------------------------------------------------------
  Species    Type    Atomic    Atomic    Charge       Radii (Angs)     Library
                     Number     Mass       (e)     Cova   Ionic  VDW   Symbol
--------------------------------------------------------------------------------
    Sb       Core       51     121.75     0.6200   1.460  0.000  2.170          
    Te1      Core       52     127.60    -0.5000   1.470  0.000  2.200          
    Te2      Core       52     127.60    -0.3700   1.470  0.000  2.200          
--------------------------------------------------------------------------------


  Lattice summation method               =    Ewald
  Accuracy factor for lattice sums       =    8.000


  Time limit = Infinity

  Maximum range for interatomic potentials =         8.000000 Angstroms

  Taper potentials to zero over   8.0000 Angstroms using Voter m =  20.0000

  General interatomic potentials :

--------------------------------------------------------------------------------
Atom  Types   Potential         A         B         C         D     Cutoffs(Ang)
  1     2                                                            Min    Max 
--------------------------------------------------------------------------------
Sb   c Te2  c Morse         0.145      3.88     3.05     0.00       0.000 12.000
Sb   c Te1  c Morse         0.176     0.949     3.23     0.00       0.000 12.000
Sb   c Sb   c Morse         0.491E-01  1.21     4.25     0.00       0.000 12.000
Te1  c Te1  c Morse         0.596E-01  1.06     4.40     0.00       0.000 12.000
Te1  c Te2  c Morse         0.883E-01  1.42     4.74     0.00       0.000 12.000
Te2  c Te2  c Morse         0.889E-01  1.26     1.19     0.00       0.000 12.000
--------------------------------------------------------------------------------

********************************************************************************
*  Output for configuration   1                                                *
********************************************************************************


  Components of energy : 

--------------------------------------------------------------------------------
  Interatomic potentials     =          -9.99666261 eV
  Monopole - monopole (real) =          -5.67123863 eV
  Monopole - monopole (recip)=          -8.27589144 eV
  Monopole - monopole (total)=         -13.94713007 eV
--------------------------------------------------------------------------------
  Total lattice energy       =         -23.94379268 eV
--------------------------------------------------------------------------------
  Total lattice energy       =           -2310.2100 kJ/(mole unit cells)
--------------------------------------------------------------------------------


  Number of variables =     48

  Maximum number of calculations  =          1000
  Maximum Hessian update interval =            10
  Maximum step size               =   1.000000000
  Maximum parameter tolerance     =   0.000010000
  Maximum function  tolerance     =   0.000010000
  Maximum gradient  tolerance     =   0.001000000
  Maximum gradient  component     =   0.010000000

  Symmetry not applied to optimisation

  Cell parameters to be optimised using strains

  Newton-Raphson optimiser to be used

  BFGS hessian update to be used

  Start of bulk optimisation :

  Cycle:      0 Energy:       -23.943793  Gnorm:      0.149676  CPU:    0.024
  ** Hessian calculated **
  Cycle:      1 Energy:       -23.980108  Gnorm:      0.080172  CPU:    0.044
  ** Hessian calculated **
  Cycle:      2 Energy:       -23.982718  Gnorm:      0.161557  CPU:    0.076
  Cycle:      3 Energy:       -23.985431  Gnorm:      0.044512  CPU:    0.092
  Cycle:      4 Energy:       -23.987527  Gnorm:      0.100119  CPU:    0.116
  Cycle:      5 Energy:       -23.993340  Gnorm:      0.117813  CPU:    0.148
  Cycle:      6 Energy:       -24.003329  Gnorm:      0.151833  CPU:    0.180
  Cycle:      7 Energy:       -24.020308  Gnorm:      0.207746  CPU:    0.212
  Cycle:      8 Energy:       -24.057717  Gnorm:      0.447806  CPU:    0.248
  ** Hessian calculated **
  Cycle:      9 Energy:       -24.085061  Gnorm:      0.404480  CPU:    0.276
  Cycle:     10 Energy:       -24.131474  Gnorm:      0.276744  CPU:    0.296
  Cycle:     11 Energy:       -24.178520  Gnorm:      0.300127  CPU:    0.320
  Cycle:     12 Energy:       -24.275950  Gnorm:      0.545999  CPU:    0.348
  Cycle:     13 Energy:       -24.761987  Gnorm:      1.510587  CPU:    0.388
  ** Hessian calculated **
  Cycle:     14 Energy:       -25.164033  Gnorm:      0.726831  CPU:    0.420
  Cycle:     15 Energy:       -26.239109  Gnorm:      2.291332  CPU:    0.452
  Cycle:     16 Energy:       -26.579097  Gnorm:      2.508393  CPU:    0.468
  Cycle:     17 Energy:       -27.382925  Gnorm:      2.194730  CPU:    0.492
  Cycle:     18 Energy:       -28.079081  Gnorm:      1.367270  CPU:    0.512
  Cycle:     19 Energy:       -28.261428  Gnorm:      1.392976  CPU:    0.528
  Cycle:     20 Energy:       -28.474275  Gnorm:      0.561931  CPU:    0.548
  Cycle:     21 Energy:       -28.625418  Gnorm:      1.085517  CPU:    0.572
  Cycle:     22 Energy:       -28.830898  Gnorm:      1.438637  CPU:    0.596
  Cycle:     23 Energy:       -28.937062  Gnorm:      1.332116  CPU:    0.612
  ** Hessian calculated **
  Cycle:     24 Energy:       -29.541218  Gnorm:      0.700933  CPU:    0.644
  Cycle:     25 Energy:       -29.665920  Gnorm:      0.190062  CPU:    0.668
  Cycle:     26 Energy:       -29.682703  Gnorm:      0.062391  CPU:    0.692
  Cycle:     27 Energy:       -29.684012  Gnorm:      0.058867  CPU:    0.712
  Cycle:     28 Energy:       -29.684604  Gnorm:      0.019011  CPU:    0.728
  Cycle:     29 Energy:       -29.684721  Gnorm:      0.014704  CPU:    0.748
  Cycle:     30 Energy:       -29.684761  Gnorm:      0.006111  CPU:    0.768
  Cycle:     31 Energy:       -29.684765  Gnorm:      0.002103  CPU:    0.788


  **** Optimisation achieved ****


  Final energy =     -29.68476570 eV
  Final Gnorm  =       0.00033045

  Components of energy : 

--------------------------------------------------------------------------------
  Interatomic potentials     =         -15.13868582 eV
  Monopole - monopole (real) =          -4.51627565 eV
  Monopole - monopole (recip)=         -10.02980423 eV
  Monopole - monopole (total)=         -14.54607988 eV
--------------------------------------------------------------------------------
  Total lattice energy       =         -29.68476570 eV
--------------------------------------------------------------------------------
  Total lattice energy       =           -2864.1261 kJ/(mole unit cells)
--------------------------------------------------------------------------------

  Final fractional coordinates of atoms :

--------------------------------------------------------------------------------
   No.  Atomic        x           y          z          Radius
        Label       (Frac)      (Frac)     (Frac)       (Angs) 
--------------------------------------------------------------------------------
     1  Sb    c     0.666667    0.333333    0.063305    0.000000
     2  Sb    c     0.666645    0.333346    0.227559    0.000000
     3  Sb    c     0.999964    0.000029    0.396636    0.000000
     4  Sb    c     0.999939    0.000044    0.560891    0.000000
     5  Sb    c     0.333250    0.666723    0.729973    0.000000
     6  Sb    c     0.333226    0.666736    0.894228    0.000000
     7  Te1   c     0.999886    0.000067    0.978766    0.000000
     8  Te2   c     0.333321    0.666669    0.143971    0.000000
     9  Te2   c     0.999993    0.000003    0.146892    0.000000
    10  Te1   c     0.333310    0.666688    0.312096    0.000000
    11  Te2   c     0.666617    0.333371    0.477303    0.000000
    12  Te2   c     0.333286    0.666702    0.480223    0.000000
    13  Te1   c     0.666594    0.333385    0.645431    0.000000
    14  Te2   c     0.999903    0.000065    0.810640    0.000000
    15  Te2   c     0.666571    0.333395    0.813560    0.000000
--------------------------------------------------------------------------------

  Final Cartesian lattice vectors (Angstroms) :

        3.882191    0.000016    0.000053
       -1.941082    3.362087   -0.000045
        0.000388   -0.000157   24.840086


  Final cell parameters and derivatives :

--------------------------------------------------------------------------------
       a            3.882191 Angstrom     dE/de1(xx)    -0.000233 eV/strain
       b            3.882193 Angstrom     dE/de2(yy)     0.000543 eV/strain
       c           24.840086 Angstrom     dE/de3(zz)    -0.001414 eV/strain
       alpha       90.001431 Degrees      dE/de4(yz)    -0.000257 eV/strain
       beta        89.998315 Degrees      dE/de5(xz)     0.000148 eV/strain
       gamma      119.999508 Degrees      dE/de6(xy)     0.000329 eV/strain
--------------------------------------------------------------------------------

  Primitive cell volume =           324.220078 Angs**3

  Density of cell =      9.623206 g/cm**3

  Non-primitive cell volume =           324.220078 Angs**3


  Final internal derivatives :

--------------------------------------------------------------------------------
   No.  Atomic          x             y             z           Radius
        Label          (eV)          (eV)          (eV)        (eV/Angs)
--------------------------------------------------------------------------------
      1 Sb    c       0.000000      0.000000      0.000000      0.000000
      2 Sb    c      -0.000334      0.000423      0.003609      0.000000
      3 Sb    c       0.000040     -0.000009     -0.000890      0.000000
      4 Sb    c      -0.000050      0.000012      0.000833      0.000000
      5 Sb    c       0.000053     -0.000018     -0.003710      0.000000
      6 Sb    c       0.000153     -0.000205      0.005662      0.000000
      7 Te1   c      -0.000189      0.000160      0.002268      0.000000
      8 Te2   c       0.000723     -0.001074     -0.007474      0.000000
      9 Te2   c      -0.000025      0.000024     -0.001054      0.000000
     10 Te1   c       0.000015     -0.000016     -0.009151      0.000000
     11 Te2   c      -0.000010     -0.000008     -0.001323      0.000000
     12 Te2   c       0.000019      0.000005      0.001070      0.000000
     13 Te1   c      -0.000005      0.000006     -0.002712      0.000000
     14 Te2   c      -0.000043      0.000031      0.005484      0.000000
     15 Te2   c      -0.000195      0.000221     -0.000583      0.000000
--------------------------------------------------------------------------------
  Maximum abs         0.000723      0.001074      0.009151      0.000000
--------------------------------------------------------------------------------


  Born effective charge tensors : 

-------------------------------------------------------------------------------
  Atom             x           y             z
-------------------------------------------------------------------------------
   1 Sb    x       0.6200      0.0000      0.0000
           y       0.0000      0.6200      0.0000
           z       0.0000      0.0000      0.6200
-------------------------------------------------------------------------------
   2 Sb    x       0.6200      0.0000      0.0000
           y       0.0000      0.6200      0.0000
           z       0.0000      0.0000      0.6200
-------------------------------------------------------------------------------
   3 Sb    x       0.6200      0.0000      0.0000
           y       0.0000      0.6200      0.0000
           z       0.0000      0.0000      0.6200
-------------------------------------------------------------------------------
   4 Sb    x       0.6200      0.0000      0.0000
           y       0.0000      0.6200      0.0000
           z       0.0000      0.0000      0.6200
-------------------------------------------------------------------------------
   5 Sb    x       0.6200      0.0000      0.0000
           y       0.0000      0.6200      0.0000
           z       0.0000      0.0000      0.6200
-------------------------------------------------------------------------------
   6 Sb    x       0.6200      0.0000      0.0000
           y       0.0000      0.6200      0.0000
           z       0.0000      0.0000      0.6200
-------------------------------------------------------------------------------
   7 Te1   x      -0.5000      0.0000      0.0000
           y       0.0000     -0.5000      0.0000
           z       0.0000      0.0000     -0.5000
-------------------------------------------------------------------------------
   8 Te2   x      -0.3700      0.0000      0.0000
           y       0.0000     -0.3700      0.0000
           z       0.0000      0.0000     -0.3700
-------------------------------------------------------------------------------
   9 Te2   x      -0.3700      0.0000      0.0000
           y       0.0000     -0.3700      0.0000
           z       0.0000      0.0000     -0.3700
-------------------------------------------------------------------------------
  10 Te1   x      -0.5000      0.0000      0.0000
           y       0.0000     -0.5000      0.0000
           z       0.0000      0.0000     -0.5000
-------------------------------------------------------------------------------
  11 Te2   x      -0.3700      0.0000      0.0000
           y       0.0000     -0.3700      0.0000
           z       0.0000      0.0000     -0.3700
-------------------------------------------------------------------------------
  12 Te2   x      -0.3700      0.0000      0.0000
           y       0.0000     -0.3700      0.0000
           z       0.0000      0.0000     -0.3700
-------------------------------------------------------------------------------
  13 Te1   x      -0.5000      0.0000      0.0000
           y       0.0000     -0.5000      0.0000
           z       0.0000      0.0000     -0.5000
-------------------------------------------------------------------------------
  14 Te2   x      -0.3700      0.0000      0.0000
           y       0.0000     -0.3700      0.0000
           z       0.0000      0.0000     -0.3700
-------------------------------------------------------------------------------
  15 Te2   x      -0.3700      0.0000      0.0000
           y       0.0000     -0.3700      0.0000
           z       0.0000      0.0000     -0.3700
-------------------------------------------------------------------------------




  Elastic Constant Matrix: (Units=GPa)

-------------------------------------------------------------------------------
  Indices      1         2         3         4         5         6    
-------------------------------------------------------------------------------
       1     54.9703   15.9013   13.8462   -3.4314   -0.0017   -0.0008
       2     15.9013   54.9687   13.8474    3.4327   -0.0008   -0.0008
       3     13.8462   13.8474  214.8056    0.0014   -0.0035    0.0016
       4     -3.4314    3.4327    0.0014    4.3381   -0.0007   -0.0004
       5     -0.0017   -0.0008   -0.0035   -0.0007    4.3386   -3.4316
       6     -0.0008   -0.0008    0.0016   -0.0004   -3.4316   19.5342
-------------------------------------------------------------------------------


  Elastic Compliance Matrix: (Units=1/GPa)

-------------------------------------------------------------------------------
  Indices      1         2         3         4         5         6    
-------------------------------------------------------------------------------
       1    0.022101 -0.007627 -0.000933  0.023518  0.000013  0.000003
       2   -0.007627  0.022102 -0.000933 -0.023522 -0.000004 -0.000000
       3   -0.000933 -0.000933  0.004776 -0.000001  0.000003  0.000000
       4    0.023518 -0.023522 -0.000001  0.267733  0.000062  0.000016
       5    0.000013 -0.000004  0.000003  0.000062  0.267686  0.047025
       6    0.000003 -0.000000  0.000000  0.000016  0.047025  0.059453
-------------------------------------------------------------------------------

 Mechanical properties :

-------------------------------------------------------------------------------
  Convention :                    Reuss         Voigt         Hill
-------------------------------------------------------------------------------
  Bulk  Modulus (GPa)     =      33.34117      45.77050      39.55584
  Shear Modulus (GPa)     =       7.43123      24.38549      15.90836
-------------------------------------------------------------------------------
  Velocity S-wave (km/s)  =       2.77888       5.03391       4.06586
  Velocity P-wave (km/s)  =       6.70395       9.01941       7.94646
-------------------------------------------------------------------------------
  Compressibility (1/GPa) =    0.02999295
-------------------------------------------------------------------------------
  Stress axis :                     x             y             z
-------------------------------------------------------------------------------
  Youngs Moduli (GPa)     =      45.24693      45.24383     209.39481
-------------------------------------------------------------------------------
  Poissons Ratio (x)      =                     0.34507       0.19538
  Poissons Ratio (y)      =       0.34509                     0.19538
  Poissons Ratio (z)      =       0.04222       0.04222
-------------------------------------------------------------------------------


  Piezoelectric Strain Matrix: (Units=C/m**2)

-------------------------------------------------------------------------------
  Indices      1         2         3         4         5         6    
-------------------------------------------------------------------------------
       x     0.00117   0.00038   0.00084   0.00061  -0.00010  -0.00029
       y    -0.00027  -0.00039  -0.00033   0.00038   0.00061   0.00040
       z     0.00006   0.00005   0.00015  -0.00001   0.00003  -0.00001
-------------------------------------------------------------------------------


  Piezoelectric Stress Matrix: (Units=10**-11 C/N)

-------------------------------------------------------------------------------
  Indices      1         2         3         4         5         6    
-------------------------------------------------------------------------------
       x     0.00367  -0.00157   0.00025   0.01826  -0.00397  -0.00218
       y     0.00063  -0.00152  -0.00009   0.01045   0.01826   0.00523
       z     0.00006   0.00008   0.00006  -0.00028   0.00069   0.00006
-------------------------------------------------------------------------------


  Static dielectric constant tensor : 

-------------------------------------------------------------------------------
              x         y         z
-------------------------------------------------------------------------------
       x     3.43046   0.00063   0.00006
       y     0.00063   3.43098  -0.00002
       z     0.00006  -0.00002   1.13208
--------------------------------------------------------------------------------

  Static refractive indices : 

-------------------------------------------------------------------------------
    1 =    1.06399      2 =    1.85204      3 =    1.85240
-------------------------------------------------------------------------------


  Time to end of optimisation =       0.8241 seconds


  Peak dynamic memory used =       0.53 MB 


  Timing analysis for GULP :

--------------------------------------------------------------------------------
  Task / Subroutine                                          Time (Seconds)
--------------------------------------------------------------------------------
  Calculation of reciprocal space energy and derivatives          0.0320
  Calculation of real space energy and derivatives                0.7720
--------------------------------------------------------------------------------
  Total CPU time                                                  0.8241
--------------------------------------------------------------------------------


  Job Finished at 11:05.42 24th June       2010                               

