********************************************************************************
*                       GENERAL UTILITY LATTICE PROGRAM                        *
*                                 Julian Gale                                  *
*                      Nanochemistry Research Institute                        *
*             Curtin University of Technology, Western Australia               *
********************************************************************************
* Version = 3.4.7 * Last modified =  21st July 2009                            *
********************************************************************************
*  fit          - perform fitting run                                          *
*  optimise     - perform optimisation run after fitting                       *
*  property     - calculate properties for final geometry                      *
*  simultaneous - relax shell positions and radii during fitting               *
*  fbfgs        - use full numerical Hessian in BFGS for fitting               *
********************************************************************************

  Job Started  at 13:43.38 28th May        2010                               

  Number of CPUs =     1


  Total number of configurations input =  59

********************************************************************************
*  Input for Configuration =   1                                               *
********************************************************************************

  Formula = GeTe                                                        

  Number of irreducible atoms/shells =       4


  Total number atoms/shells =       4

  Dimensionality = 3               :  Bulk   



  Cartesian lattice vectors (Angstroms) :

        0.116746    3.103956    3.103956
        3.103956    0.116746    3.103956
        3.103956    3.103956    0.116746

  Cell parameters (Angstroms/Degrees):

  a =       4.3912    alpha =  57.5046
  b =       4.3912    beta  =  57.5046
  c =       4.3912    gamma =  57.5046

  Initial cell volume =          56.437602 Angs**3

  Temperature of configuration =  0.000     K 

  Pressure of configuration =         0.000 GPa 

  Fractional coordinates of asymmetric unit :

--------------------------------------------------------------------------------
   No.  Atomic       x           y          z         Charge      Occupancy
        Label      (Frac)      (Frac)     (Frac)        (e)         (Frac)  
--------------------------------------------------------------------------------
      1 Ge    c    0.998439    0.998439    0.998439     -0.2000    1.000000    
      2 Te    c    0.445182    0.445182    0.445182     -2.1000    1.000000    
      3 Ge    s    0.998439    0.998439    0.998439      2.2000    1.000000    
      4 Te    s    0.445182    0.445182    0.445182      0.1000    1.000000    
--------------------------------------------------------------------------------



********************************************************************************
*  Input for Configuration =   2                                               *
********************************************************************************

  Formula = GeTe                                                        

  Number of irreducible atoms/shells =       4


  Total number atoms/shells =       4

  Dimensionality = 3               :  Bulk   



  Cartesian lattice vectors (Angstroms) :

        0.116746    3.103956    3.103956
        3.103956    0.116746    3.103956
        3.103956    3.103956    0.116746

  Cell parameters (Angstroms/Degrees):

  a =       4.3912    alpha =  57.5046
  b =       4.3912    beta  =  57.5046
  c =       4.3912    gamma =  57.5046

  Initial cell volume =          56.437602 Angs**3

  Temperature of configuration =  0.000     K 

  Pressure of configuration =         0.000 GPa 

  Fractional coordinates of asymmetric unit :

--------------------------------------------------------------------------------
   No.  Atomic       x           y          z         Charge      Occupancy
        Label      (Frac)      (Frac)     (Frac)        (e)         (Frac)  
--------------------------------------------------------------------------------
      1 Ge    c    0.998439    0.998439    0.998439     -0.2000    1.000000    
      2 Te    c    0.451827    0.451827    0.451827     -2.1000    1.000000    
      3 Ge    s    0.998439    0.998439    0.998439      2.2000    1.000000    
      4 Te    s    0.451827    0.451827    0.451827      0.1000    1.000000    
--------------------------------------------------------------------------------



********************************************************************************
*  Input for Configuration =   3                                               *
********************************************************************************

  Formula = GeTe                                                        

  Number of irreducible atoms/shells =       4


  Total number atoms/shells =       4

  Dimensionality = 3               :  Bulk   



  Cartesian lattice vectors (Angstroms) :

        0.116746    3.103956    3.103956
        3.103956    0.116746    3.103956
        3.103956    3.103956    0.116746

  Cell parameters (Angstroms/Degrees):

  a =       4.3912    alpha =  57.5046
  b =       4.3912    beta  =  57.5046
  c =       4.3912    gamma =  57.5046

  Initial cell volume =          56.437602 Angs**3

  Temperature of configuration =  0.000     K 

  Pressure of configuration =         0.000 GPa 

  Fractional coordinates of asymmetric unit :

--------------------------------------------------------------------------------
   No.  Atomic       x           y          z         Charge      Occupancy
        Label      (Frac)      (Frac)     (Frac)        (e)         (Frac)  
--------------------------------------------------------------------------------
      1 Ge    c    0.998439    0.998439    0.998439     -0.2000    1.000000    
      2 Te    c    0.458471    0.458471    0.458471     -2.1000    1.000000    
      3 Ge    s    0.998439    0.998439    0.998439      2.2000    1.000000    
      4 Te    s    0.458471    0.458471    0.458471      0.1000    1.000000    
--------------------------------------------------------------------------------



********************************************************************************
*  Input for Configuration =   4                                               *
********************************************************************************

  Formula = GeTe                                                        

  Number of irreducible atoms/shells =       4


  Total number atoms/shells =       4

  Dimensionality = 3               :  Bulk   



  Cartesian lattice vectors (Angstroms) :

        0.116746    3.103956    3.103956
        3.103956    0.116746    3.103956
        3.103956    3.103956    0.116746

  Cell parameters (Angstroms/Degrees):

  a =       4.3912    alpha =  57.5046
  b =       4.3912    beta  =  57.5046
  c =       4.3912    gamma =  57.5046

  Initial cell volume =          56.437602 Angs**3

  Temperature of configuration =  0.000     K 

  Pressure of configuration =         0.000 GPa 

  Fractional coordinates of asymmetric unit :

--------------------------------------------------------------------------------
   No.  Atomic       x           y          z         Charge      Occupancy
        Label      (Frac)      (Frac)     (Frac)        (e)         (Frac)  
--------------------------------------------------------------------------------
      1 Ge    c    0.998439    0.998439    0.998439     -0.2000    1.000000    
      2 Te    c    0.465116    0.465116    0.465116     -2.1000    1.000000    
      3 Ge    s    0.998439    0.998439    0.998439      2.2000    1.000000    
      4 Te    s    0.465116    0.465116    0.465116      0.1000    1.000000    
--------------------------------------------------------------------------------



********************************************************************************
*  Input for Configuration =   5                                               *
********************************************************************************

  Formula = GeTe                                                        

  Number of irreducible atoms/shells =       4


  Total number atoms/shells =       4

  Dimensionality = 3               :  Bulk   



  Cartesian lattice vectors (Angstroms) :

        0.116746    3.103956    3.103956
        3.103956    0.116746    3.103956
        3.103956    3.103956    0.116746

  Cell parameters (Angstroms/Degrees):

  a =       4.3912    alpha =  57.5046
  b =       4.3912    beta  =  57.5046
  c =       4.3912    gamma =  57.5046

  Initial cell volume =          56.437602 Angs**3

  Temperature of configuration =  0.000     K 

  Pressure of configuration =         0.000 GPa 

  Fractional coordinates of asymmetric unit :

--------------------------------------------------------------------------------
   No.  Atomic       x           y          z         Charge      Occupancy
        Label      (Frac)      (Frac)     (Frac)        (e)         (Frac)  
--------------------------------------------------------------------------------
      1 Ge    c    0.998439    0.998439    0.998439     -0.2000    1.000000    
      2 Te    c    0.471760    0.471760    0.471760     -2.1000    1.000000    
      3 Ge    s    0.998439    0.998439    0.998439      2.2000    1.000000    
      4 Te    s    0.471760    0.471760    0.471760      0.1000    1.000000    
--------------------------------------------------------------------------------



********************************************************************************
*  Input for Configuration =   6                                               *
********************************************************************************

  Formula = GeTe                                                        

  Number of irreducible atoms/shells =       4


  Total number atoms/shells =       4

  Dimensionality = 3               :  Bulk   



  Cartesian lattice vectors (Angstroms) :

        0.116746    3.103956    3.103956
        3.103956    0.116746    3.103956
        3.103956    3.103956    0.116746

  Cell parameters (Angstroms/Degrees):

  a =       4.3912    alpha =  57.5046
  b =       4.3912    beta  =  57.5046
  c =       4.3912    gamma =  57.5046

  Initial cell volume =          56.437602 Angs**3

  Temperature of configuration =  0.000     K 

  Pressure of configuration =         0.000 GPa 

  Fractional coordinates of asymmetric unit :

--------------------------------------------------------------------------------
   No.  Atomic       x           y          z         Charge      Occupancy
        Label      (Frac)      (Frac)     (Frac)        (e)         (Frac)  
--------------------------------------------------------------------------------
      1 Ge    c    0.998439    0.998439    0.998439     -0.2000    1.000000    
      2 Te    c    0.478405    0.478405    0.478405     -2.1000    1.000000    
      3 Ge    s    0.998439    0.998439    0.998439      2.2000    1.000000    
      4 Te    s    0.478405    0.478405    0.478405      0.1000    1.000000    
--------------------------------------------------------------------------------



********************************************************************************
*  Input for Configuration =   7                                               *
********************************************************************************

  Formula = GeTe                                                        

  Number of irreducible atoms/shells =       4


  Total number atoms/shells =       4

  Dimensionality = 3               :  Bulk   



  Cartesian lattice vectors (Angstroms) :

        0.116746    3.103956    3.103956
        3.103956    0.116746    3.103956
        3.103956    3.103956    0.116746

  Cell parameters (Angstroms/Degrees):

  a =       4.3912    alpha =  57.5046
  b =       4.3912    beta  =  57.5046
  c =       4.3912    gamma =  57.5046

  Initial cell volume =          56.437602 Angs**3

  Temperature of configuration =  0.000     K 

  Pressure of configuration =         0.000 GPa 

  Fractional coordinates of asymmetric unit :

--------------------------------------------------------------------------------
   No.  Atomic       x           y          z         Charge      Occupancy
        Label      (Frac)      (Frac)     (Frac)        (e)         (Frac)  
--------------------------------------------------------------------------------
      1 Ge    c    0.998439    0.998439    0.998439     -0.2000    1.000000    
      2 Te    c    0.485049    0.485049    0.485049     -2.1000    1.000000    
      3 Ge    s    0.998439    0.998439    0.998439      2.2000    1.000000    
      4 Te    s    0.485049    0.485049    0.485049      0.1000    1.000000    
--------------------------------------------------------------------------------



********************************************************************************
*  Input for Configuration =   8                                               *
********************************************************************************

  Formula = GeTe                                                        

  Number of irreducible atoms/shells =       4


  Total number atoms/shells =       4

  Dimensionality = 3               :  Bulk   



  Cartesian lattice vectors (Angstroms) :

        0.116746    3.103956    3.103956
        3.103956    0.116746    3.103956
        3.103956    3.103956    0.116746

  Cell parameters (Angstroms/Degrees):

  a =       4.3912    alpha =  57.5046
  b =       4.3912    beta  =  57.5046
  c =       4.3912    gamma =  57.5046

  Initial cell volume =          56.437602 Angs**3

  Temperature of configuration =  0.000     K 

  Pressure of configuration =         0.000 GPa 

  Fractional coordinates of asymmetric unit :

--------------------------------------------------------------------------------
   No.  Atomic       x           y          z         Charge      Occupancy
        Label      (Frac)      (Frac)     (Frac)        (e)         (Frac)  
--------------------------------------------------------------------------------
      1 Ge    c    0.998439    0.998439    0.998439     -0.2000    1.000000    
      2 Te    c    0.491694    0.491694    0.491694     -2.1000    1.000000    
      3 Ge    s    0.998439    0.998439    0.998439      2.2000    1.000000    
      4 Te    s    0.491694    0.491694    0.491694      0.1000    1.000000    
--------------------------------------------------------------------------------



********************************************************************************
*  Input for Configuration =   9                                               *
********************************************************************************

  Formula = GeTe                                                        

  Number of irreducible atoms/shells =       4


  Total number atoms/shells =       4

  Dimensionality = 3               :  Bulk   



  Cartesian lattice vectors (Angstroms) :

        0.116746    3.103956    3.103956
        3.103956    0.116746    3.103956
        3.103956    3.103956    0.116746

  Cell parameters (Angstroms/Degrees):

  a =       4.3912    alpha =  57.5046
  b =       4.3912    beta  =  57.5046
  c =       4.3912    gamma =  57.5046

  Initial cell volume =          56.437602 Angs**3

  Temperature of configuration =  0.000     K 

  Pressure of configuration =         0.000 GPa 

  Fractional coordinates of asymmetric unit :

--------------------------------------------------------------------------------
   No.  Atomic       x           y          z         Charge      Occupancy
        Label      (Frac)      (Frac)     (Frac)        (e)         (Frac)  
--------------------------------------------------------------------------------
      1 Ge    c    0.998439    0.998439    0.998439     -0.2000    1.000000    
      2 Te    c    0.498338    0.498338    0.498338     -2.1000    1.000000    
      3 Ge    s    0.998439    0.998439    0.998439      2.2000    1.000000    
      4 Te    s    0.498338    0.498338    0.498338      0.1000    1.000000    
--------------------------------------------------------------------------------



********************************************************************************
*  Input for Configuration =  10                                               *
********************************************************************************

  Formula = GeTe                                                        

  Number of irreducible atoms/shells =       4


  Total number atoms/shells =       4

  Dimensionality = 3               :  Bulk   



  Cartesian lattice vectors (Angstroms) :

        0.116746    3.103956    3.103956
        3.103956    0.116746    3.103956
        3.103956    3.103956    0.116746

  Cell parameters (Angstroms/Degrees):

  a =       4.3912    alpha =  57.5046
  b =       4.3912    beta  =  57.5046
  c =       4.3912    gamma =  57.5046

  Initial cell volume =          56.437602 Angs**3

  Temperature of configuration =  0.000     K 

  Pressure of configuration =         0.000 GPa 

  Fractional coordinates of asymmetric unit :

--------------------------------------------------------------------------------
   No.  Atomic       x           y          z         Charge      Occupancy
        Label      (Frac)      (Frac)     (Frac)        (e)         (Frac)  
--------------------------------------------------------------------------------
      1 Ge    c    0.998439    0.998439    0.998439     -0.2000    1.000000    
      2 Te    c    0.504983    0.504983    0.504983     -2.1000    1.000000    
      3 Ge    s    0.998439    0.998439    0.998439      2.2000    1.000000    
      4 Te    s    0.504983    0.504983    0.504983      0.1000    1.000000    
--------------------------------------------------------------------------------



********************************************************************************
*  Input for Configuration =  11                                               *
********************************************************************************

  Formula = GeTe                                                        

  Number of irreducible atoms/shells =       4


  Total number atoms/shells =       4

  Dimensionality = 3               :  Bulk   



  Cartesian lattice vectors (Angstroms) :

        0.116746    3.103956    3.103956
        3.103956    0.116746    3.103956
        3.103956    3.103956    0.116746

  Cell parameters (Angstroms/Degrees):

  a =       4.3912    alpha =  57.5046
  b =       4.3912    beta  =  57.5046
  c =       4.3912    gamma =  57.5046

  Initial cell volume =          56.437602 Angs**3

  Temperature of configuration =  0.000     K 

  Pressure of configuration =         0.000 GPa 

  Fractional coordinates of asymmetric unit :

--------------------------------------------------------------------------------
   No.  Atomic       x           y          z         Charge      Occupancy
        Label      (Frac)      (Frac)     (Frac)        (e)         (Frac)  
--------------------------------------------------------------------------------
      1 Ge    c    0.998439    0.998439    0.998439     -0.2000    1.000000    
      2 Te    c    0.511627    0.511627    0.511627     -2.1000    1.000000    
      3 Ge    s    0.998439    0.998439    0.998439      2.2000    1.000000    
      4 Te    s    0.511627    0.511627    0.511627      0.1000    1.000000    
--------------------------------------------------------------------------------



********************************************************************************
*  Input for Configuration =  12                                               *
********************************************************************************

  Formula = GeTe                                                        

  Number of irreducible atoms/shells =       4


  Total number atoms/shells =       4

  Dimensionality = 3               :  Bulk   



  Cartesian lattice vectors (Angstroms) :

        0.116746    3.103956    3.103956
        3.103956    0.116746    3.103956
        3.103956    3.103956    0.116746

  Cell parameters (Angstroms/Degrees):

  a =       4.3912    alpha =  57.5046
  b =       4.3912    beta  =  57.5046
  c =       4.3912    gamma =  57.5046

  Initial cell volume =          56.437602 Angs**3

  Temperature of configuration =  0.000     K 

  Pressure of configuration =         0.000 GPa 

  Fractional coordinates of asymmetric unit :

--------------------------------------------------------------------------------
   No.  Atomic       x           y          z         Charge      Occupancy
        Label      (Frac)      (Frac)     (Frac)        (e)         (Frac)  
--------------------------------------------------------------------------------
      1 Ge    c    0.998439    0.998439    0.998439     -0.2000    1.000000    
      2 Te    c    0.518272    0.518272    0.518272     -2.1000    1.000000    
      3 Ge    s    0.998439    0.998439    0.998439      2.2000    1.000000    
      4 Te    s    0.518272    0.518272    0.518272      0.1000    1.000000    
--------------------------------------------------------------------------------



********************************************************************************
*  Input for Configuration =  13                                               *
********************************************************************************

  Formula = GeTe                                                        

  Number of irreducible atoms/shells =       4


  Total number atoms/shells =       4

  Dimensionality = 3               :  Bulk   



  Cartesian lattice vectors (Angstroms) :

        0.116746    3.103956    3.103956
        3.103956    0.116746    3.103956
        3.103956    3.103956    0.116746

  Cell parameters (Angstroms/Degrees):

  a =       4.3912    alpha =  57.5046
  b =       4.3912    beta  =  57.5046
  c =       4.3912    gamma =  57.5046

  Initial cell volume =          56.437602 Angs**3

  Temperature of configuration =  0.000     K 

  Pressure of configuration =         0.000 GPa 

  Fractional coordinates of asymmetric unit :

--------------------------------------------------------------------------------
   No.  Atomic       x           y          z         Charge      Occupancy
        Label      (Frac)      (Frac)     (Frac)        (e)         (Frac)  
--------------------------------------------------------------------------------
      1 Ge    c    0.998439    0.998439    0.998439     -0.2000    1.000000    
      2 Te    c    0.524916    0.524916    0.524916     -2.1000    1.000000    
      3 Ge    s    0.998439    0.998439    0.998439      2.2000    1.000000    
      4 Te    s    0.524916    0.524916    0.524916      0.1000    1.000000    
--------------------------------------------------------------------------------



********************************************************************************
*  Input for Configuration =  14                                               *
********************************************************************************

  Formula = GeTe                                                        

  Number of irreducible atoms/shells =       4


  Total number atoms/shells =       4

  Dimensionality = 3               :  Bulk   



  Cartesian lattice vectors (Angstroms) :

        0.116746    3.103956    3.103956
        3.103956    0.116746    3.103956
        3.103956    3.103956    0.116746

  Cell parameters (Angstroms/Degrees):

  a =       4.3912    alpha =  57.5046
  b =       4.3912    beta  =  57.5046
  c =       4.3912    gamma =  57.5046

  Initial cell volume =          56.437602 Angs**3

  Temperature of configuration =  0.000     K 

  Pressure of configuration =         0.000 GPa 

  Fractional coordinates of asymmetric unit :

--------------------------------------------------------------------------------
   No.  Atomic       x           y          z         Charge      Occupancy
        Label      (Frac)      (Frac)     (Frac)        (e)         (Frac)  
--------------------------------------------------------------------------------
      1 Ge    c    0.998439    0.998439    0.998439     -0.2000    1.000000    
      2 Te    c    0.531561    0.531561    0.531561     -2.1000    1.000000    
      3 Ge    s    0.998439    0.998439    0.998439      2.2000    1.000000    
      4 Te    s    0.531561    0.531561    0.531561      0.1000    1.000000    
--------------------------------------------------------------------------------



********************************************************************************
*  Input for Configuration =  15                                               *
********************************************************************************

  Formula = GeTe                                                        

  Number of irreducible atoms/shells =       4


  Total number atoms/shells =       4

  Dimensionality = 3               :  Bulk   



  Cartesian lattice vectors (Angstroms) :

        0.116746    3.103956    3.103956
        3.103956    0.116746    3.103956
        3.103956    3.103956    0.116746

  Cell parameters (Angstroms/Degrees):

  a =       4.3912    alpha =  57.5046
  b =       4.3912    beta  =  57.5046
  c =       4.3912    gamma =  57.5046

  Initial cell volume =          56.437602 Angs**3

  Temperature of configuration =  0.000     K 

  Pressure of configuration =         0.000 GPa 

  Fractional coordinates of asymmetric unit :

--------------------------------------------------------------------------------
   No.  Atomic       x           y          z         Charge      Occupancy
        Label      (Frac)      (Frac)     (Frac)        (e)         (Frac)  
--------------------------------------------------------------------------------
      1 Ge    c    0.998439    0.998439    0.998439     -0.2000    1.000000    
      2 Te    c    0.538205    0.538205    0.538205     -2.1000    1.000000    
      3 Ge    s    0.998439    0.998439    0.998439      2.2000    1.000000    
      4 Te    s    0.538205    0.538205    0.538205      0.1000    1.000000    
--------------------------------------------------------------------------------



********************************************************************************
*  Input for Configuration =  16                                               *
********************************************************************************

  Formula = GeTe                                                        

  Number of irreducible atoms/shells =       4


  Total number atoms/shells =       4

  Dimensionality = 3               :  Bulk   



  Cartesian lattice vectors (Angstroms) :

        0.116746    3.103956    3.103956
        3.103956    0.116746    3.103956
        3.103956    3.103956    0.116746

  Cell parameters (Angstroms/Degrees):

  a =       4.3912    alpha =  57.5046
  b =       4.3912    beta  =  57.5046
  c =       4.3912    gamma =  57.5046

  Initial cell volume =          56.437602 Angs**3

  Temperature of configuration =  0.000     K 

  Pressure of configuration =         0.000 GPa 

  Fractional coordinates of asymmetric unit :

--------------------------------------------------------------------------------
   No.  Atomic       x           y          z         Charge      Occupancy
        Label      (Frac)      (Frac)     (Frac)        (e)         (Frac)  
--------------------------------------------------------------------------------
      1 Ge    c    0.998439    0.998439    0.998439     -0.2000    1.000000    
      2 Te    c    0.544850    0.544850    0.544850     -2.1000    1.000000    
      3 Ge    s    0.998439    0.998439    0.998439      2.2000    1.000000    
      4 Te    s    0.544850    0.544850    0.544850      0.1000    1.000000    
--------------------------------------------------------------------------------



********************************************************************************
*  Input for Configuration =  17                                               *
********************************************************************************

  Formula = GeTe                                                        

  Number of irreducible atoms/shells =       4


  Total number atoms/shells =       4

  Dimensionality = 3               :  Bulk   



  Cartesian lattice vectors (Angstroms) :

        0.116746    3.103956    3.103956
        3.103956    0.116746    3.103956
        3.103956    3.103956    0.116746

  Cell parameters (Angstroms/Degrees):

  a =       4.3912    alpha =  57.5046
  b =       4.3912    beta  =  57.5046
  c =       4.3912    gamma =  57.5046

  Initial cell volume =          56.437602 Angs**3

  Temperature of configuration =  0.000     K 

  Pressure of configuration =         0.000 GPa 

  Fractional coordinates of asymmetric unit :

--------------------------------------------------------------------------------
   No.  Atomic       x           y          z         Charge      Occupancy
        Label      (Frac)      (Frac)     (Frac)        (e)         (Frac)  
--------------------------------------------------------------------------------
      1 Ge    c    0.998439    0.998439    0.998439     -0.2000    1.000000    
      2 Te    c    0.551494    0.551494    0.551494     -2.1000    1.000000    
      3 Ge    s    0.998439    0.998439    0.998439      2.2000    1.000000    
      4 Te    s    0.551494    0.551494    0.551494      0.1000    1.000000    
--------------------------------------------------------------------------------



********************************************************************************
*  Input for Configuration =  18                                               *
********************************************************************************

  Formula = GeTe                                                        

  Number of irreducible atoms/shells =       4


  Total number atoms/shells =       4

  Dimensionality = 3               :  Bulk   



  Cartesian lattice vectors (Angstroms) :

        4.500000    0.000000    0.000000
        2.250000    3.897114    0.000000
        2.250000    1.299038    3.674235

  Cell parameters (Angstroms/Degrees):

  a =       4.5000    alpha =  60.0000
  b =       4.5000    beta  =  60.0000
  c =       4.5000    gamma =  60.0000

  Initial cell volume =          64.435105 Angs**3

  Temperature of configuration =  0.000     K 

  Pressure of configuration =         0.000 GPa 

  Fractional coordinates of asymmetric unit :

--------------------------------------------------------------------------------
   No.  Atomic       x           y          z         Charge      Occupancy
        Label      (Frac)      (Frac)     (Frac)        (e)         (Frac)  
--------------------------------------------------------------------------------
      1 Ge    c    0.000000    0.000000    0.000000     -0.2000    1.000000    
      2 Te    c    0.240000    0.240000    0.240000     -2.1000    1.000000    
      3 Ge    s    0.000000    0.000000    0.000000      2.2000    1.000000    
      4 Te    s    0.240000    0.240000    0.240000      0.1000    1.000000    
--------------------------------------------------------------------------------



********************************************************************************
*  Input for Configuration =  19                                               *
********************************************************************************

  Formula = GeTe                                                        

  Number of irreducible atoms/shells =       4


  Total number atoms/shells =       4

  Dimensionality = 3               :  Bulk   



  Cartesian lattice vectors (Angstroms) :

        4.625000    0.000000    0.000000
        2.312500    4.005367    0.000000
        2.312500    1.335122    3.776297

  Cell parameters (Angstroms/Degrees):

  a =       4.6250    alpha =  60.0000
  b =       4.6250    beta  =  60.0000
  c =       4.6250    gamma =  60.0000

  Initial cell volume =          69.955234 Angs**3

  Temperature of configuration =  0.000     K 

  Pressure of configuration =         0.000 GPa 

  Fractional coordinates of asymmetric unit :

--------------------------------------------------------------------------------
   No.  Atomic       x           y          z         Charge      Occupancy
        Label      (Frac)      (Frac)     (Frac)        (e)         (Frac)  
--------------------------------------------------------------------------------
      1 Ge    c    0.000000    0.000000    0.000000     -0.2000    1.000000    
      2 Te    c    0.240000    0.240000    0.240000     -2.1000    1.000000    
      3 Ge    s    0.000000    0.000000    0.000000      2.2000    1.000000    
      4 Te    s    0.240000    0.240000    0.240000      0.1000    1.000000    
--------------------------------------------------------------------------------



********************************************************************************
*  Input for Configuration =  20                                               *
********************************************************************************

  Formula = GeTe                                                        

  Number of irreducible atoms/shells =       4


  Total number atoms/shells =       4

  Dimensionality = 3               :  Bulk   



  Cartesian lattice vectors (Angstroms) :

        4.750000    0.000000    0.000000
        2.375000    4.113621    0.000000
        2.375000    1.371207    3.878359

  Cell parameters (Angstroms/Degrees):

  a =       4.7500    alpha =  60.0000
  b =       4.7500    beta  =  60.0000
  c =       4.7500    gamma =  60.0000

  Initial cell volume =          75.781960 Angs**3

  Temperature of configuration =  0.000     K 

  Pressure of configuration =         0.000 GPa 

  Fractional coordinates of asymmetric unit :

--------------------------------------------------------------------------------
   No.  Atomic       x           y          z         Charge      Occupancy
        Label      (Frac)      (Frac)     (Frac)        (e)         (Frac)  
--------------------------------------------------------------------------------
      1 Ge    c    0.000000    0.000000    0.000000     -0.2000    1.000000    
      2 Te    c    0.240000    0.240000    0.240000     -2.1000    1.000000    
      3 Ge    s    0.000000    0.000000    0.000000      2.2000    1.000000    
      4 Te    s    0.240000    0.240000    0.240000      0.1000    1.000000    
--------------------------------------------------------------------------------



********************************************************************************
*  Input for Configuration =  21                                               *
********************************************************************************

  Formula = GeTe                                                        

  Number of irreducible atoms/shells =       4


  Total number atoms/shells =       4

  Dimensionality = 3               :  Bulk   



  Cartesian lattice vectors (Angstroms) :

        4.875000    0.000000    0.000000
        2.437500    4.221874    0.000000
        2.437500    1.407291    3.980421

  Cell parameters (Angstroms/Degrees):

  a =       4.8750    alpha =  60.0000
  b =       4.8750    beta  =  60.0000
  c =       4.8750    gamma =  60.0000

  Initial cell volume =          81.923569 Angs**3

  Temperature of configuration =  0.000     K 

  Pressure of configuration =         0.000 GPa 

  Fractional coordinates of asymmetric unit :

--------------------------------------------------------------------------------
   No.  Atomic       x           y          z         Charge      Occupancy
        Label      (Frac)      (Frac)     (Frac)        (e)         (Frac)  
--------------------------------------------------------------------------------
      1 Ge    c    0.000000    0.000000    0.000000     -0.2000    1.000000    
      2 Te    c    0.240000    0.240000    0.240000     -2.1000    1.000000    
      3 Ge    s    0.000000    0.000000    0.000000      2.2000    1.000000    
      4 Te    s    0.240000    0.240000    0.240000      0.1000    1.000000    
--------------------------------------------------------------------------------



********************************************************************************
*  Input for Configuration =  22                                               *
********************************************************************************

  Formula = GeTe                                                        

  Number of irreducible atoms/shells =       4


  Total number atoms/shells =       4

  Dimensionality = 3               :  Bulk   



  Cartesian lattice vectors (Angstroms) :

        5.000000    0.000000    0.000000
        2.500000    4.330127    0.000000
        2.500000    1.443376    4.082483

  Cell parameters (Angstroms/Degrees):

  a =       5.0000    alpha =  60.0000
  b =       5.0000    beta  =  60.0000
  c =       5.0000    gamma =  60.0000

  Initial cell volume =          88.388348 Angs**3

  Temperature of configuration =  0.000     K 

  Pressure of configuration =         0.000 GPa 

  Fractional coordinates of asymmetric unit :

--------------------------------------------------------------------------------
   No.  Atomic       x           y          z         Charge      Occupancy
        Label      (Frac)      (Frac)     (Frac)        (e)         (Frac)  
--------------------------------------------------------------------------------
      1 Ge    c    0.000000    0.000000    0.000000     -0.2000    1.000000    
      2 Te    c    0.240000    0.240000    0.240000     -2.1000    1.000000    
      3 Ge    s    0.000000    0.000000    0.000000      2.2000    1.000000    
      4 Te    s    0.240000    0.240000    0.240000      0.1000    1.000000    
--------------------------------------------------------------------------------



********************************************************************************
*  Input for Configuration =  23                                               *
********************************************************************************

  Formula = GeTe                                                        

  Number of irreducible atoms/shells =       4


  Total number atoms/shells =       4

  Dimensionality = 3               :  Bulk   



  Cartesian lattice vectors (Angstroms) :

        5.125000    0.000000    0.000000
        2.562500    4.438380    0.000000
        2.562500    1.479460    4.184545

  Cell parameters (Angstroms/Degrees):

  a =       5.1250    alpha =  60.0000
  b =       5.1250    beta  =  60.0000
  c =       5.1250    gamma =  60.0000

  Initial cell volume =          95.184583 Angs**3

  Temperature of configuration =  0.000     K 

  Pressure of configuration =         0.000 GPa 

  Fractional coordinates of asymmetric unit :

--------------------------------------------------------------------------------
   No.  Atomic       x           y          z         Charge      Occupancy
        Label      (Frac)      (Frac)     (Frac)        (e)         (Frac)  
--------------------------------------------------------------------------------
      1 Ge    c    0.000000    0.000000    0.000000     -0.2000    1.000000    
      2 Te    c    0.240000    0.240000    0.240000     -2.1000    1.000000    
      3 Ge    s    0.000000    0.000000    0.000000      2.2000    1.000000    
      4 Te    s    0.240000    0.240000    0.240000      0.1000    1.000000    
--------------------------------------------------------------------------------



********************************************************************************
*  Input for Configuration =  24                                               *
********************************************************************************

  Formula = GeTe                                                        

  Number of irreducible atoms/shells =       4


  Total number atoms/shells =       4

  Dimensionality = 3               :  Bulk   



  Cartesian lattice vectors (Angstroms) :

        5.250000    0.000000    0.000000
        2.625000    4.546633    0.000000
        2.625000    1.515544    4.286607

  Cell parameters (Angstroms/Degrees):

  a =       5.2500    alpha =  60.0000
  b =       5.2500    beta  =  60.0000
  c =       5.2500    gamma =  60.0000

  Initial cell volume =         102.320561 Angs**3

  Temperature of configuration =  0.000     K 

  Pressure of configuration =         0.000 GPa 

  Fractional coordinates of asymmetric unit :

--------------------------------------------------------------------------------
   No.  Atomic       x           y          z         Charge      Occupancy
        Label      (Frac)      (Frac)     (Frac)        (e)         (Frac)  
--------------------------------------------------------------------------------
      1 Ge    c    0.000000    0.000000    0.000000     -0.2000    1.000000    
      2 Te    c    0.240000    0.240000    0.240000     -2.1000    1.000000    
      3 Ge    s    0.000000    0.000000    0.000000      2.2000    1.000000    
      4 Te    s    0.240000    0.240000    0.240000      0.1000    1.000000    
--------------------------------------------------------------------------------



********************************************************************************
*  Input for Configuration =  25                                               *
********************************************************************************

  Formula = GeTe                                                        

  Number of irreducible atoms/shells =       4


  Total number atoms/shells =       4

  Dimensionality = 3               :  Bulk   



  Cartesian lattice vectors (Angstroms) :

        0.116746    2.925825    2.925825
        2.925825    0.116746    2.925825
        2.925825    2.925825    0.116746

  Cell parameters (Angstroms/Degrees):

  a =       4.1394    alpha =  57.3523
  b =       4.1394    beta  =  57.3523
  c =       4.1394    gamma =  57.3523

  Initial cell volume =          47.096146 Angs**3

  Temperature of configuration =  0.000     K 

  Pressure of configuration =         0.000 GPa 

  Fractional coordinates of asymmetric unit :

--------------------------------------------------------------------------------
   No.  Atomic       x           y          z         Charge      Occupancy
        Label      (Frac)      (Frac)     (Frac)        (e)         (Frac)  
--------------------------------------------------------------------------------
      1 Ge    c    0.000000    0.000000    0.000000     -0.2000    1.000000    
      2 Te    c    0.465116    0.465116    0.465116     -2.1000    1.000000    
      3 Ge    s    0.000000    0.000000    0.000000      2.2000    1.000000    
      4 Te    s    0.465116    0.465116    0.465116      0.1000    1.000000    
--------------------------------------------------------------------------------



********************************************************************************
*  Input for Configuration =  26                                               *
********************************************************************************

  Formula = GeTe                                                        

  Number of irreducible atoms/shells =       4


  Total number atoms/shells =       4

  Dimensionality = 3               :  Bulk   



  Cartesian lattice vectors (Angstroms) :

        0.116746    3.014486    3.014486
        3.014486    0.116746    3.014486
        3.014486    3.014486    0.116746

  Cell parameters (Angstroms/Degrees):

  a =       4.2647    alpha =  57.4303
  b =       4.2647    beta  =  57.4303
  c =       4.2647    gamma =  57.4303

  Initial cell volume =          51.604961 Angs**3

  Temperature of configuration =  0.000     K 

  Pressure of configuration =         0.000 GPa 

  Fractional coordinates of asymmetric unit :

--------------------------------------------------------------------------------
   No.  Atomic       x           y          z         Charge      Occupancy
        Label      (Frac)      (Frac)     (Frac)        (e)         (Frac)  
--------------------------------------------------------------------------------
      1 Ge    c    0.000000    0.000000    0.000000     -0.2000    1.000000    
      2 Te    c    0.465116    0.465116    0.465116     -2.1000    1.000000    
      3 Ge    s    0.000000    0.000000    0.000000      2.2000    1.000000    
      4 Te    s    0.465116    0.465116    0.465116      0.1000    1.000000    
--------------------------------------------------------------------------------



********************************************************************************
*  Input for Configuration =  27                                               *
********************************************************************************

  Formula = GeTe                                                        

  Number of irreducible atoms/shells =       4


  Total number atoms/shells =       4

  Dimensionality = 3               :  Bulk   



  Cartesian lattice vectors (Angstroms) :

        0.116746    3.103956    3.103956
        3.103956    0.116746    3.103956
        3.103956    3.103956    0.116746

  Cell parameters (Angstroms/Degrees):

  a =       4.3912    alpha =  57.5046
  b =       4.3912    beta  =  57.5046
  c =       4.3912    gamma =  57.5046

  Initial cell volume =          56.437602 Angs**3

  Temperature of configuration =  0.000     K 

  Pressure of configuration =         0.000 GPa 

  Fractional coordinates of asymmetric unit :

--------------------------------------------------------------------------------
   No.  Atomic       x           y          z         Charge      Occupancy
        Label      (Frac)      (Frac)     (Frac)        (e)         (Frac)  
--------------------------------------------------------------------------------
      1 Ge    c    0.000000    0.000000    0.000000     -0.2000    1.000000    
      2 Te    c    0.465116    0.465116    0.465116     -2.1000    1.000000    
      3 Ge    s    0.000000    0.000000    0.000000      2.2000    1.000000    
      4 Te    s    0.465116    0.465116    0.465116      0.1000    1.000000    
--------------------------------------------------------------------------------



********************************************************************************
*  Input for Configuration =  28                                               *
********************************************************************************

  Formula = GeTe                                                        

  Number of irreducible atoms/shells =       4


  Total number atoms/shells =       4

  Dimensionality = 3               :  Bulk   



  Cartesian lattice vectors (Angstroms) :

        0.116746    3.191809    3.191809
        3.191809    0.116746    3.191809
        3.191809    3.191809    0.116746

  Cell parameters (Angstroms/Degrees):

  a =       4.5154    alpha =  57.5734
  b =       4.5154    beta  =  57.5734
  c =       4.5154    gamma =  57.5734

  Initial cell volume =          61.467505 Angs**3

  Temperature of configuration =  0.000     K 

  Pressure of configuration =         0.000 GPa 

  Fractional coordinates of asymmetric unit :

--------------------------------------------------------------------------------
   No.  Atomic       x           y          z         Charge      Occupancy
        Label      (Frac)      (Frac)     (Frac)        (e)         (Frac)  
--------------------------------------------------------------------------------
      1 Ge    c    0.000000    0.000000    0.000000     -0.2000    1.000000    
      2 Te    c    0.465116    0.465116    0.465116     -2.1000    1.000000    
      3 Ge    s    0.000000    0.000000    0.000000      2.2000    1.000000    
      4 Te    s    0.465116    0.465116    0.465116      0.1000    1.000000    
--------------------------------------------------------------------------------



********************************************************************************
*  Input for Configuration =  29                                               *
********************************************************************************

  Formula = GeTe                                                        

  Number of irreducible atoms/shells =       4


  Total number atoms/shells =       4

  Dimensionality = 3               :  Bulk   



  Cartesian lattice vectors (Angstroms) :

        0.116746    3.280470    3.280470
        3.280470    0.116746    3.280470
        3.280470    3.280470    0.116746

  Cell parameters (Angstroms/Degrees):

  a =       4.6408    alpha =  57.6392
  b =       4.6408    beta  =  57.6392
  c =       4.6408    gamma =  57.6392

  Initial cell volume =          66.837961 Angs**3

  Temperature of configuration =  0.000     K 

  Pressure of configuration =         0.000 GPa 

  Fractional coordinates of asymmetric unit :

--------------------------------------------------------------------------------
   No.  Atomic       x           y          z         Charge      Occupancy
        Label      (Frac)      (Frac)     (Frac)        (e)         (Frac)  
--------------------------------------------------------------------------------
      1 Ge    c    0.000000    0.000000    0.000000     -0.2000    1.000000    
      2 Te    c    0.465116    0.465116    0.465116     -2.1000    1.000000    
      3 Ge    s    0.000000    0.000000    0.000000      2.2000    1.000000    
      4 Te    s    0.465116    0.465116    0.465116      0.1000    1.000000    
--------------------------------------------------------------------------------



********************************************************************************
*  Input for Configuration =  30                                               *
********************************************************************************

  Formula = GeTe                                                        

  Number of irreducible atoms/shells =       4


  Total number atoms/shells =       4

  Dimensionality = 3               :  Bulk   



  Cartesian lattice vectors (Angstroms) :

        0.116746    3.369131    3.369131
        3.369131    0.116746    3.369131
        3.369131    3.369131    0.116746

  Cell parameters (Angstroms/Degrees):

  a =       4.7661    alpha =  57.7015
  b =       4.7661    beta  =  57.7015
  c =       4.7661    gamma =  57.7015

  Initial cell volume =          72.512357 Angs**3

  Temperature of configuration =  0.000     K 

  Pressure of configuration =         0.000 GPa 

  Fractional coordinates of asymmetric unit :

--------------------------------------------------------------------------------
   No.  Atomic       x           y          z         Charge      Occupancy
        Label      (Frac)      (Frac)     (Frac)        (e)         (Frac)  
--------------------------------------------------------------------------------
      1 Ge    c    0.000000    0.000000    0.000000     -0.2000    1.000000    
      2 Te    c    0.465116    0.465116    0.465116     -2.1000    1.000000    
      3 Ge    s    0.000000    0.000000    0.000000      2.2000    1.000000    
      4 Te    s    0.465116    0.465116    0.465116      0.1000    1.000000    
--------------------------------------------------------------------------------



********************************************************************************
*  Input for Configuration =  31                                               *
********************************************************************************

  Formula = GeTe                                                        

  Number of irreducible atoms/shells =       4


  Total number atoms/shells =       4

  Dimensionality = 3               :  Bulk   



  Cartesian lattice vectors (Angstroms) :

       -1.450723   -2.512725   -3.490162
       -1.450723    2.512725   -3.490162
        2.901445    0.000000   -3.490162

  Cell parameters (Angstroms/Degrees):

  a =       4.5387    alpha =  67.2321
  b =       4.5387    beta  =  67.2321
  c =       4.5387    gamma =  67.2321

  Initial cell volume =          76.335444 Angs**3

  Temperature of configuration =  0.000     K 

  Pressure of configuration =         0.000 GPa 

  Fractional coordinates of asymmetric unit :

--------------------------------------------------------------------------------
   No.  Atomic       x           y          z         Charge      Occupancy
        Label      (Frac)      (Frac)     (Frac)        (e)         (Frac)  
--------------------------------------------------------------------------------
      1 Ge    c    0.000000    0.000000    0.000000     -0.2000    1.000000    
      2 Te    c    0.262500    0.262500    0.262500     -2.1000    1.000000    
      3 Ge    s    0.000000    0.000000    0.000000      2.2000    1.000000    
      4 Te    s    0.262500    0.262500    0.262500      0.1000    1.000000    
--------------------------------------------------------------------------------



********************************************************************************
*  Input for Configuration =  32                                               *
********************************************************************************

  Formula = GeTe                                                        

  Number of irreducible atoms/shells =       4


  Total number atoms/shells =       4

  Dimensionality = 3               :  Bulk   



  Cartesian lattice vectors (Angstroms) :

       -1.465844   -2.538917   -3.313467
       -1.465844    2.538917   -3.313467
        2.931689    0.000000   -3.313467

  Cell parameters (Angstroms/Degrees):

  a =       4.4242    alpha =  70.0405
  b =       4.4242    beta  =  70.0405
  c =       4.4242    gamma =  70.0405

  Initial cell volume =          73.989542 Angs**3

  Temperature of configuration =  0.000     K 

  Pressure of configuration =         0.000 GPa 

  Fractional coordinates of asymmetric unit :

--------------------------------------------------------------------------------
   No.  Atomic       x           y          z         Charge      Occupancy
        Label      (Frac)      (Frac)     (Frac)        (e)         (Frac)  
--------------------------------------------------------------------------------
      1 Ge    c    0.000000    0.000000    0.000000     -0.2000    1.000000    
      2 Te    c    0.275000    0.275000    0.275000     -2.1000    1.000000    
      3 Ge    s    0.000000    0.000000    0.000000      2.2000    1.000000    
      4 Te    s    0.275000    0.275000    0.275000      0.1000    1.000000    
--------------------------------------------------------------------------------



********************************************************************************
*  Input for Configuration =  33                                               *
********************************************************************************

  Formula = GeTe                                                        

  Number of irreducible atoms/shells =       4


  Total number atoms/shells =       4

  Dimensionality = 3               :  Bulk   



  Cartesian lattice vectors (Angstroms) :

       -1.473245   -2.551734   -3.170646
       -1.473245    2.551734   -3.170646
        2.946489    0.000000   -3.170646

  Cell parameters (Angstroms/Degrees):

  a =       4.3284    alpha =  72.2483
  b =       4.3284    beta  =  72.2483
  c =       4.3284    gamma =  72.2483

  Initial cell volume =          71.517001 Angs**3

  Temperature of configuration =  0.000     K 

  Pressure of configuration =         0.000 GPa 

  Fractional coordinates of asymmetric unit :

--------------------------------------------------------------------------------
   No.  Atomic       x           y          z         Charge      Occupancy
        Label      (Frac)      (Frac)     (Frac)        (e)         (Frac)  
--------------------------------------------------------------------------------
      1 Ge    c    0.000000    0.000000    0.000000     -0.2000    1.000000    
      2 Te    c    0.287500    0.287500    0.287500     -2.1000    1.000000    
      3 Ge    s    0.000000    0.000000    0.000000      2.2000    1.000000    
      4 Te    s    0.287500    0.287500    0.287500      0.1000    1.000000    
--------------------------------------------------------------------------------



********************************************************************************
*  Input for Configuration =  34                                               *
********************************************************************************

  Formula = GeTe                                                        

  Number of irreducible atoms/shells =       4


  Total number atoms/shells =       4

  Dimensionality = 3               :  Bulk   



  Cartesian lattice vectors (Angstroms) :

       -1.476453   -2.557291   -3.050262
       -1.476453    2.557291   -3.050262
        2.952906   -1.000000   -3.050262

  Cell parameters (Angstroms/Degrees):

  a =       4.2454    alpha =  82.5935
  b =       4.2454    beta  =  66.1015
  c =       4.3616    gamma =  74.0785

  Initial cell volume =          69.101613 Angs**3

  Temperature of configuration =  0.000     K 

  Pressure of configuration =         0.000 GPa 

  Fractional coordinates of asymmetric unit :

--------------------------------------------------------------------------------
   No.  Atomic       x           y          z         Charge      Occupancy
        Label      (Frac)      (Frac)     (Frac)        (e)         (Frac)  
--------------------------------------------------------------------------------
      1 Ge    c    0.000000    0.000000    0.000000     -0.2000    1.000000    
      2 Te    c    0.300000    0.300000    0.300000     -2.1000    1.000000    
      3 Ge    s    0.000000    0.000000    0.000000      2.2000    1.000000    
      4 Te    s    0.300000    0.300000    0.300000      0.1000    1.000000    
--------------------------------------------------------------------------------



********************************************************************************
*  Input for Configuration =  35                                               *
********************************************************************************

  Formula = GeTe                                                        

  Number of irreducible atoms/shells =       4


  Total number atoms/shells =       4

  Dimensionality = 3               :  Bulk   



  Cartesian lattice vectors (Angstroms) :

       -1.477058   -2.558339   -2.941360
       -1.477058    2.558339   -2.941360
        2.954116   -1.000000   -2.941360

  Cell parameters (Angstroms/Degrees):

  a =       4.1687    alpha =  84.4454
  b =       4.1687    beta  =  67.4741
  c =       4.2870    gamma =  75.7144

  Initial cell volume =          66.689133 Angs**3

  Temperature of configuration =  0.000     K 

  Pressure of configuration =         0.000 GPa 

  Fractional coordinates of asymmetric unit :

--------------------------------------------------------------------------------
   No.  Atomic       x           y          z         Charge      Occupancy
        Label      (Frac)      (Frac)     (Frac)        (e)         (Frac)  
--------------------------------------------------------------------------------
      1 Ge    c    0.000000    0.000000    0.000000     -0.2000    1.000000    
      2 Te    c    0.312500    0.312500    0.312500     -2.1000    1.000000    
      3 Ge    s    0.000000    0.000000    0.000000      2.2000    1.000000    
      4 Te    s    0.312500    0.312500    0.312500      0.1000    1.000000    
--------------------------------------------------------------------------------



********************************************************************************
*  Input for Configuration =  36                                               *
********************************************************************************

  Formula = GeTe                                                        

  Number of irreducible atoms/shells =       4


  Total number atoms/shells =       4

  Dimensionality = 3               :  Bulk   



  Cartesian lattice vectors (Angstroms) :

       -1.479124   -2.561918   -2.848582
       -1.479124    2.561918   -2.848582
        2.958248    0.000000   -2.848582

  Cell parameters (Angstroms/Degrees):

  a =       4.1068    alpha =  77.1922
  b =       4.1068    beta  =  77.1922
  c =       4.1068    gamma =  77.1922

  Initial cell volume =          64.766406 Angs**3

  Temperature of configuration =  0.000     K 

  Pressure of configuration =         0.000 GPa 

  Fractional coordinates of asymmetric unit :

--------------------------------------------------------------------------------
   No.  Atomic       x           y          z         Charge      Occupancy
        Label      (Frac)      (Frac)     (Frac)        (e)         (Frac)  
--------------------------------------------------------------------------------
      1 Ge    c    0.000000    0.000000    0.000000     -0.2000    1.000000    
      2 Te    c    0.325000    0.325000    0.325000     -2.1000    1.000000    
      3 Ge    s    0.000000    0.000000    0.000000      2.2000    1.000000    
      4 Te    s    0.325000    0.325000    0.325000      0.1000    1.000000    
--------------------------------------------------------------------------------



********************************************************************************
*  Input for Configuration =  37                                               *
********************************************************************************

  Formula = GeTe                                                        

  Number of irreducible atoms/shells =       4


  Total number atoms/shells =       4

  Dimensionality = 3               :  Bulk   



  Cartesian lattice vectors (Angstroms) :

       -1.479767   -2.563031   -2.763042
       -1.479767    2.563031   -2.763042
        2.959533    0.000000   -2.763042

  Cell parameters (Angstroms/Degrees):

  a =       4.0489    alpha =  78.5474
  b =       4.0489    beta  =  78.5474
  c =       4.0489    gamma =  78.5474

  Initial cell volume =          62.876129 Angs**3

  Temperature of configuration =  0.000     K 

  Pressure of configuration =         0.000 GPa 

  Fractional coordinates of asymmetric unit :

--------------------------------------------------------------------------------
   No.  Atomic       x           y          z         Charge      Occupancy
        Label      (Frac)      (Frac)     (Frac)        (e)         (Frac)  
--------------------------------------------------------------------------------
      1 Ge    c    0.000000    0.000000    0.000000     -0.2000    1.000000    
      2 Te    c    0.337500    0.337500    0.337500     -2.1000    1.000000    
      3 Ge    s    0.000000    0.000000    0.000000      2.2000    1.000000    
      4 Te    s    0.337500    0.337500    0.337500      0.1000    1.000000    
--------------------------------------------------------------------------------



********************************************************************************
*  Input for Configuration =  38                                               *
********************************************************************************

  Formula = GeTe                                                        

  Number of irreducible atoms/shells =       4


  Total number atoms/shells =       4

  Dimensionality = 3               :  Bulk   



  Cartesian lattice vectors (Angstroms) :

       -1.480160   -2.563713   -2.686448
       -1.480160    2.563713   -2.686448
        2.960320   -2.000000   -2.686448

  Cell parameters (Angstroms/Degrees):

  a =       3.9976    alpha =  97.3700
  b =       3.9976    beta  =  63.5372
  c =       4.4700    gamma =  79.7805

  Initial cell volume =          61.165662 Angs**3

  Temperature of configuration =  0.000     K 

  Pressure of configuration =         0.000 GPa 

  Fractional coordinates of asymmetric unit :

--------------------------------------------------------------------------------
   No.  Atomic       x           y          z         Charge      Occupancy
        Label      (Frac)      (Frac)     (Frac)        (e)         (Frac)  
--------------------------------------------------------------------------------
      1 Ge    c    0.000000    0.000000    0.000000     -0.2000    1.000000    
      2 Te    c    0.350000    0.350000    0.350000     -2.1000    1.000000    
      3 Ge    s    0.000000    0.000000    0.000000      2.2000    1.000000    
      4 Te    s    0.350000    0.350000    0.350000      0.1000    1.000000    
--------------------------------------------------------------------------------



********************************************************************************
*  Input for Configuration =  39                                               *
********************************************************************************

  Formula = GeTe                                                        

  Number of irreducible atoms/shells =       4


  Total number atoms/shells =       4

  Dimensionality = 3               :  Bulk   



  Cartesian lattice vectors (Angstroms) :

       -1.483737   -2.569908   -2.620133
       -1.483737    2.569908   -2.620133
        2.967474   -2.000000   -2.620133

  Cell parameters (Angstroms/Degrees):

  a =       3.9587    alpha =  98.7723
  b =       3.9587    beta  =  64.3434
  c =       4.4352    gamma =  80.9605

  Initial cell volume =          59.944457 Angs**3

  Temperature of configuration =  0.000     K 

  Pressure of configuration =         0.000 GPa 

  Fractional coordinates of asymmetric unit :

--------------------------------------------------------------------------------
   No.  Atomic       x           y          z         Charge      Occupancy
        Label      (Frac)      (Frac)     (Frac)        (e)         (Frac)  
--------------------------------------------------------------------------------
      1 Ge    c    0.000000    0.000000    0.000000     -0.2000    1.000000    
      2 Te    c    0.362500    0.362500    0.362500     -2.1000    1.000000    
      3 Ge    s    0.000000    0.000000    0.000000      2.2000    1.000000    
      4 Te    s    0.362500    0.362500    0.362500      0.1000    1.000000    
--------------------------------------------------------------------------------



********************************************************************************
*  Input for Configuration =  40                                               *
********************************************************************************

  Formula = GeTe                                                        

  Number of irreducible atoms/shells =       4


  Total number atoms/shells =       4

  Dimensionality = 3               :  Bulk   



  Cartesian lattice vectors (Angstroms) :

       -1.477535   -2.559166   -2.544995
       -1.477535    2.559166   -2.544995
        2.955071    1.000000   -2.544995

  Cell parameters (Angstroms/Degrees):

  a =       3.8999    alpha =  72.6972
  b =       3.8999    beta  =  91.6364
  c =       4.0261    gamma =  82.0227

  Initial cell volume =          57.739712 Angs**3

  Temperature of configuration =  0.000     K 

  Pressure of configuration =         0.000 GPa 

  Fractional coordinates of asymmetric unit :

--------------------------------------------------------------------------------
   No.  Atomic       x           y          z         Charge      Occupancy
        Label      (Frac)      (Frac)     (Frac)        (e)         (Frac)  
--------------------------------------------------------------------------------
      1 Ge    c    0.000000    0.000000    0.000000     -0.2000    1.000000    
      2 Te    c    0.375000    0.375000    0.375000     -2.1000    1.000000    
      3 Ge    s    0.000000    0.000000    0.000000      2.2000    1.000000    
      4 Te    s    0.375000    0.375000    0.375000      0.1000    1.000000    
--------------------------------------------------------------------------------



********************************************************************************
*  Input for Configuration =  41                                               *
********************************************************************************

  Formula = GeTe                                                        

  Number of irreducible atoms/shells =       4


  Total number atoms/shells =       4

  Dimensionality = 3               :  Bulk   



  Cartesian lattice vectors (Angstroms) :

        3.597292    0.000000    0.000000
        0.000000    3.597292    0.000000
        0.000000    0.000000    3.597292

  Cell parameters (Angstroms/Degrees):

  a =       3.5973    alpha =  90.0000
  b =       3.5973    beta  =  90.0000
  c =       3.5973    gamma =  90.0000

  Initial cell volume =          46.550774 Angs**3

  Temperature of configuration =  0.000     K 

  Pressure of configuration =         0.000 GPa 

  Fractional coordinates of asymmetric unit :

--------------------------------------------------------------------------------
   No.  Atomic       x           y          z         Charge      Occupancy
        Label      (Frac)      (Frac)     (Frac)        (e)         (Frac)  
--------------------------------------------------------------------------------
      1 Ge    c    0.000000    0.000000    0.000000     -0.2000    1.000000    
      2 Te    c    0.500000    0.500000    0.500000     -2.1000    1.000000    
      3 Ge    s    0.000000    0.000000    0.000000      2.2000    1.000000    
      4 Te    s    0.500000    0.500000    0.500000      0.1000    1.000000    
--------------------------------------------------------------------------------



********************************************************************************
*  Input for Configuration =  42                                               *
********************************************************************************

  Formula = GeTe                                                        

  Number of irreducible atoms/shells =       4


  Total number atoms/shells =       4

  Dimensionality = 3               :  Bulk   



  Cartesian lattice vectors (Angstroms) :

        3.633999    0.000000    0.000000
        0.000000    3.633999    0.000000
        0.000000    0.000000    3.633999

  Cell parameters (Angstroms/Degrees):

  a =       3.6340    alpha =  90.0000
  b =       3.6340    beta  =  90.0000
  c =       3.6340    gamma =  90.0000

  Initial cell volume =          47.990388 Angs**3

  Temperature of configuration =  0.000     K 

  Pressure of configuration =         0.000 GPa 

  Fractional coordinates of asymmetric unit :

--------------------------------------------------------------------------------
   No.  Atomic       x           y          z         Charge      Occupancy
        Label      (Frac)      (Frac)     (Frac)        (e)         (Frac)  
--------------------------------------------------------------------------------
      1 Ge    c    0.000000    0.000000    0.000000     -0.2000    1.000000    
      2 Te    c    0.500000    0.500000    0.500000     -2.1000    1.000000    
      3 Ge    s    0.000000    0.000000    0.000000      2.2000    1.000000    
      4 Te    s    0.500000    0.500000    0.500000      0.1000    1.000000    
--------------------------------------------------------------------------------



********************************************************************************
*  Input for Configuration =  43                                               *
********************************************************************************

  Formula = GeTe                                                        

  Number of irreducible atoms/shells =       4


  Total number atoms/shells =       4

  Dimensionality = 3               :  Bulk   



  Cartesian lattice vectors (Angstroms) :

        3.670706    0.000000    0.000000
        0.000000    3.670706    0.000000
        0.000000    0.000000    3.670706

  Cell parameters (Angstroms/Degrees):

  a =       3.6707    alpha =  90.0000
  b =       3.6707    beta  =  90.0000
  c =       3.6707    gamma =  90.0000

  Initial cell volume =          49.459381 Angs**3

  Temperature of configuration =  0.000     K 

  Pressure of configuration =         0.000 GPa 

  Fractional coordinates of asymmetric unit :

--------------------------------------------------------------------------------
   No.  Atomic       x           y          z         Charge      Occupancy
        Label      (Frac)      (Frac)     (Frac)        (e)         (Frac)  
--------------------------------------------------------------------------------
      1 Ge    c    0.000000    0.000000    0.000000     -0.2000    1.000000    
      2 Te    c    0.500000    0.500000    0.500000     -2.1000    1.000000    
      3 Ge    s    0.000000    0.000000    0.000000      2.2000    1.000000    
      4 Te    s    0.500000    0.500000    0.500000      0.1000    1.000000    
--------------------------------------------------------------------------------



********************************************************************************
*  Input for Configuration =  44                                               *
********************************************************************************

  Formula = GeTe                                                        

  Number of irreducible atoms/shells =       4


  Total number atoms/shells =       4

  Dimensionality = 3               :  Bulk   



  Cartesian lattice vectors (Angstroms) :

        3.707413    0.000000    0.000000
        0.000000    3.707413    0.000000
        0.000000    0.000000    3.707413

  Cell parameters (Angstroms/Degrees):

  a =       3.7074    alpha =  90.0000
  b =       3.7074    beta  =  90.0000
  c =       3.7074    gamma =  90.0000

  Initial cell volume =          50.958050 Angs**3

  Temperature of configuration =  0.000     K 

  Pressure of configuration =         0.000 GPa 

  Fractional coordinates of asymmetric unit :

--------------------------------------------------------------------------------
   No.  Atomic       x           y          z         Charge      Occupancy
        Label      (Frac)      (Frac)     (Frac)        (e)         (Frac)  
--------------------------------------------------------------------------------
      1 Ge    c    0.000000    0.000000    0.000000     -0.2000    1.000000    
      2 Te    c    0.500000    0.500000    0.500000     -2.1000    1.000000    
      3 Ge    s    0.000000    0.000000    0.000000      2.2000    1.000000    
      4 Te    s    0.500000    0.500000    0.500000      0.1000    1.000000    
--------------------------------------------------------------------------------



********************************************************************************
*  Input for Configuration =  45                                               *
********************************************************************************

  Formula = GeTe                                                        

  Number of irreducible atoms/shells =       4


  Total number atoms/shells =       4

  Dimensionality = 3               :  Bulk   



  Cartesian lattice vectors (Angstroms) :

        3.744120    0.000000    0.000000
        0.000000    3.744120    0.000000
        0.000000    0.000000    3.744120

  Cell parameters (Angstroms/Degrees):

  a =       3.7441    alpha =  90.0000
  b =       3.7441    beta  =  90.0000
  c =       3.7441    gamma =  90.0000

  Initial cell volume =          52.486691 Angs**3

  Temperature of configuration =  0.000     K 

  Pressure of configuration =         0.000 GPa 

  Fractional coordinates of asymmetric unit :

--------------------------------------------------------------------------------
   No.  Atomic       x           y          z         Charge      Occupancy
        Label      (Frac)      (Frac)     (Frac)        (e)         (Frac)  
--------------------------------------------------------------------------------
      1 Ge    c    0.000000    0.000000    0.000000     -0.2000    1.000000    
      2 Te    c    0.500000    0.500000    0.500000     -2.1000    1.000000    
      3 Ge    s    0.000000    0.000000    0.000000      2.2000    1.000000    
      4 Te    s    0.500000    0.500000    0.500000      0.1000    1.000000    
--------------------------------------------------------------------------------



********************************************************************************
*  Input for Configuration =  46                                               *
********************************************************************************

  Formula = GeTe                                                        

  Number of irreducible atoms/shells =       4


  Total number atoms/shells =       4

  Dimensionality = 3               :  Bulk   



  Cartesian lattice vectors (Angstroms) :

        3.780827    0.000000    0.000000
        0.000000    3.780827    0.000000
        0.000000    0.000000    3.780827

  Cell parameters (Angstroms/Degrees):

  a =       3.7808    alpha =  90.0000
  b =       3.7808    beta  =  90.0000
  c =       3.7808    gamma =  90.0000

  Initial cell volume =          54.045601 Angs**3

  Temperature of configuration =  0.000     K 

  Pressure of configuration =         0.000 GPa 

  Fractional coordinates of asymmetric unit :

--------------------------------------------------------------------------------
   No.  Atomic       x           y          z         Charge      Occupancy
        Label      (Frac)      (Frac)     (Frac)        (e)         (Frac)  
--------------------------------------------------------------------------------
      1 Ge    c    0.000000    0.000000    0.000000     -0.2000    1.000000    
      2 Te    c    0.500000    0.500000    0.500000     -2.1000    1.000000    
      3 Ge    s    0.000000    0.000000    0.000000      2.2000    1.000000    
      4 Te    s    0.500000    0.500000    0.500000      0.1000    1.000000    
--------------------------------------------------------------------------------



********************************************************************************
*  Input for Configuration =  47                                               *
********************************************************************************

  Formula = GeTe                                                        

  Number of irreducible atoms/shells =       4


  Total number atoms/shells =       4

  Dimensionality = 3               :  Bulk   



  Cartesian lattice vectors (Angstroms) :

        3.817534    0.000000    0.000000
        0.000000    3.817534    0.000000
        0.000000    0.000000    3.817534

  Cell parameters (Angstroms/Degrees):

[...]

 Mechanical properties :

-------------------------------------------------------------------------------
  Convention :                    Reuss         Voigt         Hill
-------------------------------------------------------------------------------
  Bulk  Modulus (GPa)     =       1.00575       1.01733       1.01154
  Shear Modulus (GPa)     =       0.77118      31.67215      16.22167
-------------------------------------------------------------------------------
  Velocity S-wave (km/s)  =       1.16697       7.47862       5.35218
  Velocity P-wave (km/s)  =       1.89521       8.73896       6.32303
-------------------------------------------------------------------------------
  Compressibility (1/GPa) =    0.99428603
-------------------------------------------------------------------------------
  Stress axis :                     x             y             z
-------------------------------------------------------------------------------
  Youngs Moduli (GPa)     =       3.94919       3.94919       9.06061
-------------------------------------------------------------------------------
  Poissons Ratio (x)      =                     0.09848      -0.96803
  Poissons Ratio (y)      =       0.09848                    -0.96803
  Poissons Ratio (z)      =      -0.42193      -0.42193
-------------------------------------------------------------------------------


  Piezoelectric Strain Matrix: (Units=C/m**2)

-------------------------------------------------------------------------------
  Indices      1         2         3         4         5         6    
-------------------------------------------------------------------------------
       x     7.68757  -7.68757  -0.00000  -0.00000   1.95949   0.00000
       y    -0.00000  -0.00000   0.00000   1.95949  -0.00000  -7.68757
       z     5.15092   5.15092 -18.05209   0.00000   0.00000  -0.00000
-------------------------------------------------------------------------------


  Piezoelectric Stress Matrix: (Units=10**-11 C/N)

-------------------------------------------------------------------------------
  Indices      1         2         3         4         5         6    
-------------------------------------------------------------------------------
       x   330.44627-330.44627   0.00000  -0.000001439.80797   0.00000
       y     0.00000   0.00000   0.000001439.80792  -0.00000-660.89252
       z   -75.28325 -75.28325 -89.17220  -0.00000  -0.00000   0.00000
-------------------------------------------------------------------------------


  Static dielectric constant tensor : 

-------------------------------------------------------------------------------
              x         y         z
-------------------------------------------------------------------------------
       x    -4.29603   0.00000  -0.00000
       y     0.00000  -4.29603  -0.00000
       z    -0.00000  -0.00000  -4.47507
--------------------------------------------------------------------------------

  High frequency dielectric constant tensor : 

-------------------------------------------------------------------------------
              x         y         z
-------------------------------------------------------------------------------
       x     9.00015   0.00000  -0.00000
       y     0.00000   9.00015  -0.00000
       z    -0.00000  -0.00000   7.42924
-------------------------------------------------------------------------------

  Static refractive indices : 

-------------------------------------------------------------------------------
    1 =   -2.11544      2 =   -2.07269      3 =   -2.07269
-------------------------------------------------------------------------------

  High frequency refractive indices : 

-------------------------------------------------------------------------------
    1 =    2.72566      2 =    3.00003      3 =    3.00003
-------------------------------------------------------------------------------


  Time to end of properties =     257.6161 seconds


********************************************************************************
*  Output for configuration  58                                                *
********************************************************************************



!!!!!!!!!!!!!!!!!!!!!!!!!!!!!!!!!!!!!!!!!!!!!!!!!!!!!!!!!!!!!!!!!!!!!!!!!!!!!!!!
!! WARNING : No variables to optimise - single point performed
!!!!!!!!!!!!!!!!!!!!!!!!!!!!!!!!!!!!!!!!!!!!!!!!!!!!!!!!!!!!!!!!!!!!!!!!!!!!!!!!


  Components of energy : 

--------------------------------------------------------------------------------
  Interatomic potentials     =          -8.57142762 eV
  Monopole - monopole (real) =          -1.96945658 eV
  Monopole - monopole (recip)=         -19.05210787 eV
  Monopole - monopole (total)=         -21.02156445 eV
  Energy shift               =          22.32982286 eV
--------------------------------------------------------------------------------
  Total lattice energy       =          -7.26316921 eV
--------------------------------------------------------------------------------
  Total lattice energy       =            -700.7848 kJ/(mole unit cells)
--------------------------------------------------------------------------------

  Born effective charge tensors : 

-------------------------------------------------------------------------------
  Atom             x           y             z
-------------------------------------------------------------------------------
   1 Ge    x       4.4971     -0.0000     -0.0000
           y      -0.0000      4.4971     -0.0000
           z      -0.0000     -0.0000      3.5322
-------------------------------------------------------------------------------
   2 Te    x      -4.4971      0.0000      0.0000
           y       0.0000     -4.4971      0.0000
           z       0.0000      0.0000     -3.5322
-------------------------------------------------------------------------------




  Elastic Constant Matrix: (Units=GPa)

-------------------------------------------------------------------------------
  Indices      1         2         3         4         5         6    
-------------------------------------------------------------------------------
       1     50.7073  -16.9569  -59.9423    0.0000  -19.2746   -0.0000
       2    -16.9569   50.7073  -59.9423    0.0000   19.2746    0.0000
       3    -59.9423  -59.9423  108.0373   -0.0000   -0.0000   -0.0000
       4      0.0000    0.0000   -0.0000   -3.1582    0.0000   19.2746
       5    -19.2746   19.2746   -0.0000    0.0000   -3.1582   -0.0000
       6     -0.0000    0.0000   -0.0000   19.2746   -0.0000   33.8321
-------------------------------------------------------------------------------


  Elastic Compliance Matrix: (Units=1/GPa)

-------------------------------------------------------------------------------
  Indices      1         2         3         4         5         6    
-------------------------------------------------------------------------------
       1   -0.013610 -0.016911 -0.016934 -0.000000 -0.020147  0.000000
       2   -0.016911 -0.013610 -0.016934  0.000000  0.020147  0.000000
       3   -0.016934 -0.016934 -0.009534 -0.000000  0.000000  0.000000
       4   -0.000000  0.000000 -0.000000 -0.070725 -0.000000  0.040293
       5   -0.020147  0.020147  0.000000 -0.000000 -0.070725  0.000000
       6    0.000000  0.000000  0.000000  0.040293  0.000000  0.006602
-------------------------------------------------------------------------------

 Mechanical properties :

-------------------------------------------------------------------------------
  Convention :                    Reuss         Voigt         Hill
-------------------------------------------------------------------------------
  Bulk  Modulus (GPa)     =      -7.23017      -7.13677      -7.18347
  Shear Modulus (GPa)     =     -43.04799      28.58935      -7.22932
-------------------------------------------------------------------------------
  Velocity S-wave (km/s)  =      -8.84918       7.21155      -3.62639
  Velocity P-wave (km/s)  =      10.84264       7.50730       5.53188
-------------------------------------------------------------------------------
  Compressibility (1/GPa) =   -0.13830931
-------------------------------------------------------------------------------
  Stress axis :                     x             y             z
-------------------------------------------------------------------------------
  Youngs Moduli (GPa)     =     -73.47741     -73.47741    -104.88325
-------------------------------------------------------------------------------
  Poissons Ratio (x)      =                    -1.24255      -1.77605
  Poissons Ratio (y)      =      -1.24255                    -1.77605
  Poissons Ratio (z)      =      -1.24423      -1.24423
-------------------------------------------------------------------------------


  Piezoelectric Strain Matrix: (Units=C/m**2)

-------------------------------------------------------------------------------
  Indices      1         2         3         4         5         6    
-------------------------------------------------------------------------------
       x     8.52615  -8.52615  -0.00000   0.00000   2.06321  -0.00000
       y     0.00000   0.00000  -0.00000   2.06321   0.00000  -8.52615
       z     5.89998   5.89998 -22.60126   0.00000   0.00000   0.00000
-------------------------------------------------------------------------------


  Piezoelectric Stress Matrix: (Units=10**-11 C/N)

-------------------------------------------------------------------------------
  Indices      1         2         3         4         5         6    
-------------------------------------------------------------------------------
       x    -1.34213   1.34213   0.00000  -0.00000 -48.94668   0.00000
       y    -0.00000  -0.00000  -0.00000 -48.94668  -0.00000   2.68426
       z    20.26506  20.26506   1.56743   0.00000  -0.00000  -0.00000
-------------------------------------------------------------------------------


  Static dielectric constant tensor : 

-------------------------------------------------------------------------------
              x         y         z
-------------------------------------------------------------------------------
       x    -4.18728  -0.00000  -0.00000
       y    -0.00000  -4.18728  -0.00000
       z    -0.00000  -0.00000  -4.49396
--------------------------------------------------------------------------------

  High frequency dielectric constant tensor : 

-------------------------------------------------------------------------------
              x         y         z
-------------------------------------------------------------------------------
       x     8.63106  -0.00000  -0.00000
       y    -0.00000   8.63106  -0.00000
       z    -0.00000  -0.00000   6.70806
-------------------------------------------------------------------------------

  Static refractive indices : 

-------------------------------------------------------------------------------
    1 =   -2.11990      2 =   -2.04628      3 =   -2.04628
-------------------------------------------------------------------------------

  High frequency refractive indices : 

-------------------------------------------------------------------------------
    1 =    2.58999      2 =    2.93787      3 =    2.93787
-------------------------------------------------------------------------------


  Time to end of properties =     257.6161 seconds


********************************************************************************
*  Output for configuration  59                                                *
********************************************************************************



!!!!!!!!!!!!!!!!!!!!!!!!!!!!!!!!!!!!!!!!!!!!!!!!!!!!!!!!!!!!!!!!!!!!!!!!!!!!!!!!
!! WARNING : No variables to optimise - single point performed
!!!!!!!!!!!!!!!!!!!!!!!!!!!!!!!!!!!!!!!!!!!!!!!!!!!!!!!!!!!!!!!!!!!!!!!!!!!!!!!!


  Components of energy : 

--------------------------------------------------------------------------------
  Interatomic potentials     =          -9.28427103 eV
  Monopole - monopole (real) =          -1.76168690 eV
  Monopole - monopole (recip)=         -19.41468253 eV
  Monopole - monopole (total)=         -21.17636944 eV
  Energy shift               =          22.32982286 eV
--------------------------------------------------------------------------------
  Total lattice energy       =          -8.13081761 eV
--------------------------------------------------------------------------------
  Total lattice energy       =            -784.4996 kJ/(mole unit cells)
--------------------------------------------------------------------------------

  Born effective charge tensors : 

-------------------------------------------------------------------------------
  Atom             x           y             z
-------------------------------------------------------------------------------
   1 Ge    x       4.7596      0.1626      0.1130
           y       0.1626      4.5541      0.0623
           z       0.1130      0.0623      4.5078
-------------------------------------------------------------------------------
   2 Te    x      -4.7596     -0.1626     -0.1130
           y      -0.1626     -4.5541     -0.0623
           z      -0.1130     -0.0623     -4.5078
-------------------------------------------------------------------------------




  Elastic Constant Matrix: (Units=GPa)

-------------------------------------------------------------------------------
  Indices      1         2         3         4         5         6    
-------------------------------------------------------------------------------
       1     59.5217   -7.1848  -21.9488   19.8700    4.8506    6.9767
       2     -7.1848   57.1811  -19.9268  -17.2755   -0.1411   -5.1254
       3    -21.9488  -19.9268   71.8735   -2.4979   -4.5344   -1.5993
       4     19.8700  -17.2755   -2.4979   25.0839   -1.1547    0.1680
       5      4.8506   -0.1411   -4.5344   -1.1547   23.6240   20.0403
       6      6.9767   -5.1254   -1.5993    0.1680   20.0403   38.5146
-------------------------------------------------------------------------------


  Elastic Compliance Matrix: (Units=1/GPa)

-------------------------------------------------------------------------------
  Indices      1         2         3         4         5         6    
-------------------------------------------------------------------------------
       1    0.027027 -0.000949  0.007020 -0.021450 -0.002368 -0.003405
       2   -0.000949  0.026392  0.007748  0.019627 -0.000943  0.004411
       3    0.007020  0.007748  0.018443  0.001767  0.003208 -0.001152
       4   -0.021450  0.019627  0.001767  0.070776  0.005385  0.003460
       5   -0.002368 -0.000943  0.003208  0.005385  0.077584 -0.039956
       6   -0.003405  0.004411 -0.001152  0.003460 -0.039956  0.047895
-------------------------------------------------------------------------------

 Mechanical properties :

-------------------------------------------------------------------------------
  Convention :                    Reuss         Voigt         Hill
-------------------------------------------------------------------------------
  Bulk  Modulus (GPa)     =      10.05034      10.05062      10.05048
  Shear Modulus (GPa)     =      18.27167      33.28694      25.77931
-------------------------------------------------------------------------------
  Velocity S-wave (km/s)  =       5.58044       7.53210       6.62849
  Velocity P-wave (km/s)  =       7.65839       9.63188       8.70127
-------------------------------------------------------------------------------
  Compressibility (1/GPa) =    0.09949916
-------------------------------------------------------------------------------
  Stress axis :                     x             y             z
-------------------------------------------------------------------------------
  Youngs Moduli (GPa)     =      36.99952      37.89064      54.22005
-------------------------------------------------------------------------------
  Poissons Ratio (x)      =                     0.03597      -0.38061
  Poissons Ratio (y)      =       0.03513                    -0.42009
  Poissons Ratio (z)      =      -0.25973      -0.29357
-------------------------------------------------------------------------------


  Piezoelectric Strain Matrix: (Units=C/m**2)

-------------------------------------------------------------------------------
  Indices      1         2         3         4         5         6    
-------------------------------------------------------------------------------
       x    -4.41495  -0.49327   2.24798  -3.68926  -1.94382  -2.79579
       y    -2.10519  -0.59870   1.23839   2.72068  -3.68926  -1.74688
       z    -1.46366   3.20084  -2.75609   0.54779   0.99436  -3.68926
-------------------------------------------------------------------------------


  Piezoelectric Stress Matrix: (Units=10**-11 C/N)

-------------------------------------------------------------------------------
  Indices      1         2         3         4         5         6    
-------------------------------------------------------------------------------
       x    -0.98172  -7.43174  -0.28906 -19.22574  -4.08365  -5.87351
       y    -9.13130   4.49639  -0.15924  20.22437 -19.22574   7.62568
       z    -6.34868   5.80533  -2.78986  12.07062  21.91105 -19.22574
-------------------------------------------------------------------------------


  Static dielectric constant tensor : 

-------------------------------------------------------------------------------
              x         y         z
-------------------------------------------------------------------------------
       x    -4.13552   0.22980   0.15977
       y     0.22980  -4.42606   0.08802
       z     0.15977   0.08802  -4.49146
--------------------------------------------------------------------------------

  High frequency dielectric constant tensor : 

-------------------------------------------------------------------------------
              x         y         z
-------------------------------------------------------------------------------
       x     9.40366   0.15320   0.10651
       y     0.15320   9.20996   0.05868
       z     0.10651   0.05868   9.16637
-------------------------------------------------------------------------------

  Static refractive indices : 

-------------------------------------------------------------------------------
    1 =   -2.13370      2 =   -2.13370      3 =   -1.98689
-------------------------------------------------------------------------------

  High frequency refractive indices : 

-------------------------------------------------------------------------------
    1 =    3.02086      2 =    3.02086      3 =    3.08688
-------------------------------------------------------------------------------


  Time to end of properties =     257.6201 seconds


  Peak dynamic memory used =       0.92 MB 


  Timing analysis for GULP :

--------------------------------------------------------------------------------
  Task / Subroutine                                          Time (Seconds)
--------------------------------------------------------------------------------
  Calculation of reciprocal space energy and derivatives         22.3174
  Calculation of real space energy and derivatives              222.1099
  Sum of squares for fitting                                     10.0166
  Global summation overhead                                       0.3360
--------------------------------------------------------------------------------
  Total CPU time                                                257.6201
--------------------------------------------------------------------------------



  **** GULP has completed with  94 warnings - beware! ****

  Job Finished at 13:47.56 28th May        2010                               

