********************************************************************************
*                       GENERAL UTILITY LATTICE PROGRAM                        *
*                                 Julian Gale                                  *
*                      Nanochemistry Research Institute                        *
*             Curtin University of Technology, Western Australia               *
********************************************************************************
* Version = 3.4.7 * Last modified =  21st July 2009                            *
********************************************************************************
*  fit          - perform fitting run                                          *
*  optimise     - perform optimisation run after fitting                       *
*  property     - calculate properties for final geometry                      *
*  fbfgs        - use full numerical Hessian in BFGS for fitting               *
********************************************************************************

  Job Started  at 16:42.48 20th June       2010                               

  Number of CPUs =     1


  Total number of configurations input = 106

********************************************************************************
*  Input for Configuration =   1                                               *
********************************************************************************

  Formula = Sb2Te3                                                      

  Number of irreducible atoms/shells =       5


  Total number atoms/shells =       5

  Dimensionality = 3               :  Bulk   



  Cartesian lattice vectors (Angstroms) :

       -2.504286    0.000000   10.443767
        1.252143   -2.168775   10.443767
        1.252143    2.168775   10.443767

  Cell parameters (Angstroms/Degrees):

  a =      10.7398    alpha =  23.3006
  b =      10.7398    beta  =  23.3006
  c =      10.7398    gamma =  23.3006

  Initial cell volume =         170.167643 Angs**3

  Temperature of configuration =  0.000     K 

  Pressure of configuration =         0.000 GPa 

  Fractional coordinates of asymmetric unit :

--------------------------------------------------------------------------------
   No.  Atomic       x           y          z         Charge      Occupancy
        Label      (Frac)      (Frac)     (Frac)        (e)         (Frac)  
--------------------------------------------------------------------------------
      1 Sb    c    0.369021    0.369021    0.369021      0.6200    1.000000    
      2 Sb    c    0.603203    0.603203    0.603203      0.6200    1.000000    
      3 Te1   c    0.000000    0.000000    0.000000     -0.5000    1.000000    
      4 Te2   c    0.784571    0.784571    0.784571     -0.3700    1.000000    
      5 Te2   c    0.215429    0.215429    0.215429     -0.3700    1.000000    
--------------------------------------------------------------------------------



********************************************************************************
*  Input for Configuration =   2                                               *
********************************************************************************

  Formula = Sb2Te3                                                      

  Number of irreducible atoms/shells =       5


  Total number atoms/shells =       5

  Dimensionality = 3               :  Bulk   



  Cartesian lattice vectors (Angstroms) :

       -2.504286    0.000000   10.443767
        1.252143   -2.168775   10.443767
        1.252143    2.168775   10.443767

  Cell parameters (Angstroms/Degrees):

  a =      10.7398    alpha =  23.3006
  b =      10.7398    beta  =  23.3006
  c =      10.7398    gamma =  23.3006

  Initial cell volume =         170.167643 Angs**3

  Temperature of configuration =  0.000     K 

  Pressure of configuration =         0.000 GPa 

  Fractional coordinates of asymmetric unit :

--------------------------------------------------------------------------------
   No.  Atomic       x           y          z         Charge      Occupancy
        Label      (Frac)      (Frac)     (Frac)        (e)         (Frac)  
--------------------------------------------------------------------------------
      1 Sb    c    0.372989    0.372989    0.372989      0.6200    1.000000    
      2 Sb    c    0.603203    0.603203    0.603203      0.6200    1.000000    
      3 Te1   c    0.000000    0.000000    0.000000     -0.5000    1.000000    
      4 Te2   c    0.784571    0.784571    0.784571     -0.3700    1.000000    
      5 Te2   c    0.215429    0.215429    0.215429     -0.3700    1.000000    
--------------------------------------------------------------------------------



********************************************************************************
*  Input for Configuration =   3                                               *
********************************************************************************

  Formula = Sb2Te3                                                      

  Number of irreducible atoms/shells =       5


  Total number atoms/shells =       5

  Dimensionality = 3               :  Bulk   



  Cartesian lattice vectors (Angstroms) :

       -2.504286    0.000000   10.443767
        1.252143   -2.168775   10.443767
        1.252143    2.168775   10.443767

  Cell parameters (Angstroms/Degrees):

  a =      10.7398    alpha =  23.3006
  b =      10.7398    beta  =  23.3006
  c =      10.7398    gamma =  23.3006

  Initial cell volume =         170.167643 Angs**3

  Temperature of configuration =  0.000     K 

  Pressure of configuration =         0.000 GPa 

  Fractional coordinates of asymmetric unit :

--------------------------------------------------------------------------------
   No.  Atomic       x           y          z         Charge      Occupancy
        Label      (Frac)      (Frac)     (Frac)        (e)         (Frac)  
--------------------------------------------------------------------------------
      1 Sb    c    0.376957    0.376957    0.376957      0.6200    1.000000    
      2 Sb    c    0.603203    0.603203    0.603203      0.6200    1.000000    
      3 Te1   c    0.000000    0.000000    0.000000     -0.5000    1.000000    
      4 Te2   c    0.784571    0.784571    0.784571     -0.3700    1.000000    
      5 Te2   c    0.215429    0.215429    0.215429     -0.3700    1.000000    
--------------------------------------------------------------------------------



********************************************************************************
*  Input for Configuration =   4                                               *
********************************************************************************

  Formula = Sb2Te3                                                      

  Number of irreducible atoms/shells =       5


  Total number atoms/shells =       5

  Dimensionality = 3               :  Bulk   



  Cartesian lattice vectors (Angstroms) :

       -2.504286    0.000000   10.443767
        1.252143   -2.168775   10.443767
        1.252143    2.168775   10.443767

  Cell parameters (Angstroms/Degrees):

  a =      10.7398    alpha =  23.3006
  b =      10.7398    beta  =  23.3006
  c =      10.7398    gamma =  23.3006

  Initial cell volume =         170.167643 Angs**3

  Temperature of configuration =  0.000     K 

  Pressure of configuration =         0.000 GPa 

  Fractional coordinates of asymmetric unit :

--------------------------------------------------------------------------------
   No.  Atomic       x           y          z         Charge      Occupancy
        Label      (Frac)      (Frac)     (Frac)        (e)         (Frac)  
--------------------------------------------------------------------------------
      1 Sb    c    0.380925    0.380925    0.380925      0.6200    1.000000    
      2 Sb    c    0.603203    0.603203    0.603203      0.6200    1.000000    
      3 Te1   c    0.000000    0.000000    0.000000     -0.5000    1.000000    
      4 Te2   c    0.784571    0.784571    0.784571     -0.3700    1.000000    
      5 Te2   c    0.215429    0.215429    0.215429     -0.3700    1.000000    
--------------------------------------------------------------------------------



********************************************************************************
*  Input for Configuration =   5                                               *
********************************************************************************

  Formula = Sb2Te3                                                      

  Number of irreducible atoms/shells =       5


  Total number atoms/shells =       5

  Dimensionality = 3               :  Bulk   



  Cartesian lattice vectors (Angstroms) :

       -2.504286    0.000000   10.443767
        1.252143   -2.168775   10.443767
        1.252143    2.168775   10.443767

  Cell parameters (Angstroms/Degrees):

  a =      10.7398    alpha =  23.3006
  b =      10.7398    beta  =  23.3006
  c =      10.7398    gamma =  23.3006

  Initial cell volume =         170.167643 Angs**3

  Temperature of configuration =  0.000     K 

  Pressure of configuration =         0.000 GPa 

  Fractional coordinates of asymmetric unit :

--------------------------------------------------------------------------------
   No.  Atomic       x           y          z         Charge      Occupancy
        Label      (Frac)      (Frac)     (Frac)        (e)         (Frac)  
--------------------------------------------------------------------------------
      1 Sb    c    0.384893    0.384893    0.384893      0.6200    1.000000    
      2 Sb    c    0.603203    0.603203    0.603203      0.6200    1.000000    
      3 Te1   c    0.000000    0.000000    0.000000     -0.5000    1.000000    
      4 Te2   c    0.784571    0.784571    0.784571     -0.3700    1.000000    
      5 Te2   c    0.215429    0.215429    0.215429     -0.3700    1.000000    
--------------------------------------------------------------------------------



********************************************************************************
*  Input for Configuration =   6                                               *
********************************************************************************

  Formula = Sb2Te3                                                      

  Number of irreducible atoms/shells =       5


  Total number atoms/shells =       5

  Dimensionality = 3               :  Bulk   



  Cartesian lattice vectors (Angstroms) :

       -2.504286    0.000000   10.443767
        1.252143   -2.168775   10.443767
        1.252143    2.168775   10.443767

  Cell parameters (Angstroms/Degrees):

  a =      10.7398    alpha =  23.3006
  b =      10.7398    beta  =  23.3006
  c =      10.7398    gamma =  23.3006

  Initial cell volume =         170.167643 Angs**3

  Temperature of configuration =  0.000     K 

  Pressure of configuration =         0.000 GPa 

  Fractional coordinates of asymmetric unit :

--------------------------------------------------------------------------------
   No.  Atomic       x           y          z         Charge      Occupancy
        Label      (Frac)      (Frac)     (Frac)        (e)         (Frac)  
--------------------------------------------------------------------------------
      1 Sb    c    0.388861    0.388861    0.388861      0.6200    1.000000    
      2 Sb    c    0.603203    0.603203    0.603203      0.6200    1.000000    
      3 Te1   c    0.000000    0.000000    0.000000     -0.5000    1.000000    
      4 Te2   c    0.784571    0.784571    0.784571     -0.3700    1.000000    
      5 Te2   c    0.215429    0.215429    0.215429     -0.3700    1.000000    
--------------------------------------------------------------------------------



********************************************************************************
*  Input for Configuration =   7                                               *
********************************************************************************

  Formula = Sb2Te3                                                      

  Number of irreducible atoms/shells =       5


  Total number atoms/shells =       5

  Dimensionality = 3               :  Bulk   



  Cartesian lattice vectors (Angstroms) :

       -2.504286    0.000000   10.443767
        1.252143   -2.168775   10.443767
        1.252143    2.168775   10.443767

  Cell parameters (Angstroms/Degrees):

  a =      10.7398    alpha =  23.3006
  b =      10.7398    beta  =  23.3006
  c =      10.7398    gamma =  23.3006

  Initial cell volume =         170.167643 Angs**3

  Temperature of configuration =  0.000     K 

  Pressure of configuration =         0.000 GPa 

  Fractional coordinates of asymmetric unit :

--------------------------------------------------------------------------------
   No.  Atomic       x           y          z         Charge      Occupancy
        Label      (Frac)      (Frac)     (Frac)        (e)         (Frac)  
--------------------------------------------------------------------------------
      1 Sb    c    0.392829    0.392829    0.392829      0.6200    1.000000    
      2 Sb    c    0.603203    0.603203    0.603203      0.6200    1.000000    
      3 Te1   c    0.000000    0.000000    0.000000     -0.5000    1.000000    
      4 Te2   c    0.784571    0.784571    0.784571     -0.3700    1.000000    
      5 Te2   c    0.215429    0.215429    0.215429     -0.3700    1.000000    
--------------------------------------------------------------------------------



********************************************************************************
*  Input for Configuration =   8                                               *
********************************************************************************

  Formula = Sb2Te3                                                      

  Number of irreducible atoms/shells =       5


  Total number atoms/shells =       5

  Dimensionality = 3               :  Bulk   



  Cartesian lattice vectors (Angstroms) :

       -2.504286    0.000000   10.443767
        1.252143   -2.168775   10.443767
        1.252143    2.168775   10.443767

  Cell parameters (Angstroms/Degrees):

  a =      10.7398    alpha =  23.3006
  b =      10.7398    beta  =  23.3006
  c =      10.7398    gamma =  23.3006

  Initial cell volume =         170.167643 Angs**3

  Temperature of configuration =  0.000     K 

  Pressure of configuration =         0.000 GPa 

  Fractional coordinates of asymmetric unit :

--------------------------------------------------------------------------------
   No.  Atomic       x           y          z         Charge      Occupancy
        Label      (Frac)      (Frac)     (Frac)        (e)         (Frac)  
--------------------------------------------------------------------------------
      1 Sb    c    0.396797    0.396797    0.396797      0.6200    1.000000    
      2 Sb    c    0.603203    0.603203    0.603203      0.6200    1.000000    
      3 Te1   c    0.000000    0.000000    0.000000     -0.5000    1.000000    
      4 Te2   c    0.784571    0.784571    0.784571     -0.3700    1.000000    
      5 Te2   c    0.215429    0.215429    0.215429     -0.3700    1.000000    
--------------------------------------------------------------------------------



********************************************************************************
*  Input for Configuration =   9                                               *
********************************************************************************

  Formula = Sb2Te3                                                      

  Number of irreducible atoms/shells =       5


  Total number atoms/shells =       5

  Dimensionality = 3               :  Bulk   



  Cartesian lattice vectors (Angstroms) :

       -2.504286    0.000000   10.443767
        1.252143   -2.168775   10.443767
        1.252143    2.168775   10.443767

  Cell parameters (Angstroms/Degrees):

  a =      10.7398    alpha =  23.3006
  b =      10.7398    beta  =  23.3006
  c =      10.7398    gamma =  23.3006

  Initial cell volume =         170.167643 Angs**3

  Temperature of configuration =  0.000     K 

  Pressure of configuration =         0.000 GPa 

  Fractional coordinates of asymmetric unit :

--------------------------------------------------------------------------------
   No.  Atomic       x           y          z         Charge      Occupancy
        Label      (Frac)      (Frac)     (Frac)        (e)         (Frac)  
--------------------------------------------------------------------------------
      1 Sb    c    0.400765    0.400765    0.400765      0.6200    1.000000    
      2 Sb    c    0.603203    0.603203    0.603203      0.6200    1.000000    
      3 Te1   c    0.000000    0.000000    0.000000     -0.5000    1.000000    
      4 Te2   c    0.784571    0.784571    0.784571     -0.3700    1.000000    
      5 Te2   c    0.215429    0.215429    0.215429     -0.3700    1.000000    
--------------------------------------------------------------------------------



********************************************************************************
*  Input for Configuration =  10                                               *
********************************************************************************

  Formula = Sb2Te3                                                      

  Number of irreducible atoms/shells =       5


  Total number atoms/shells =       5

  Dimensionality = 3               :  Bulk   



  Cartesian lattice vectors (Angstroms) :

       -2.504286    0.000000   10.443767
        1.252143   -2.168775   10.443767
        1.252143    2.168775   10.443767

  Cell parameters (Angstroms/Degrees):

  a =      10.7398    alpha =  23.3006
  b =      10.7398    beta  =  23.3006
  c =      10.7398    gamma =  23.3006

  Initial cell volume =         170.167643 Angs**3

  Temperature of configuration =  0.000     K 

  Pressure of configuration =         0.000 GPa 

  Fractional coordinates of asymmetric unit :

--------------------------------------------------------------------------------
   No.  Atomic       x           y          z         Charge      Occupancy
        Label      (Frac)      (Frac)     (Frac)        (e)         (Frac)  
--------------------------------------------------------------------------------
      1 Sb    c    0.404733    0.404733    0.404733      0.6200    1.000000    
      2 Sb    c    0.603203    0.603203    0.603203      0.6200    1.000000    
      3 Te1   c    0.000000    0.000000    0.000000     -0.5000    1.000000    
      4 Te2   c    0.784571    0.784571    0.784571     -0.3700    1.000000    
      5 Te2   c    0.215429    0.215429    0.215429     -0.3700    1.000000    
--------------------------------------------------------------------------------



********************************************************************************
*  Input for Configuration =  11                                               *
********************************************************************************

  Formula = Sb2Te3                                                      

  Number of irreducible atoms/shells =       5


  Total number atoms/shells =       5

  Dimensionality = 3               :  Bulk   



  Cartesian lattice vectors (Angstroms) :

       -2.504286    0.000000   10.443767
        1.252143   -2.168775   10.443767
        1.252143    2.168775   10.443767

  Cell parameters (Angstroms/Degrees):

  a =      10.7398    alpha =  23.3006
  b =      10.7398    beta  =  23.3006
  c =      10.7398    gamma =  23.3006

  Initial cell volume =         170.167643 Angs**3

  Temperature of configuration =  0.000     K 

  Pressure of configuration =         0.000 GPa 

  Fractional coordinates of asymmetric unit :

--------------------------------------------------------------------------------
   No.  Atomic       x           y          z         Charge      Occupancy
        Label      (Frac)      (Frac)     (Frac)        (e)         (Frac)  
--------------------------------------------------------------------------------
      1 Sb    c    0.408700    0.408700    0.408700      0.6200    1.000000    
      2 Sb    c    0.603203    0.603203    0.603203      0.6200    1.000000    
      3 Te1   c    0.000000    0.000000    0.000000     -0.5000    1.000000    
      4 Te2   c    0.784571    0.784571    0.784571     -0.3700    1.000000    
      5 Te2   c    0.215429    0.215429    0.215429     -0.3700    1.000000    
--------------------------------------------------------------------------------



********************************************************************************
*  Input for Configuration =  12                                               *
********************************************************************************

  Formula = Sb2Te3                                                      

  Number of irreducible atoms/shells =       5


  Total number atoms/shells =       5

  Dimensionality = 3               :  Bulk   



  Cartesian lattice vectors (Angstroms) :

       -2.504286    0.000000   10.443767
        1.252143   -2.168775   10.443767
        1.252143    2.168775   10.443767

  Cell parameters (Angstroms/Degrees):

  a =      10.7398    alpha =  23.3006
  b =      10.7398    beta  =  23.3006
  c =      10.7398    gamma =  23.3006

  Initial cell volume =         170.167643 Angs**3

  Temperature of configuration =  0.000     K 

  Pressure of configuration =         0.000 GPa 

  Fractional coordinates of asymmetric unit :

--------------------------------------------------------------------------------
   No.  Atomic       x           y          z         Charge      Occupancy
        Label      (Frac)      (Frac)     (Frac)        (e)         (Frac)  
--------------------------------------------------------------------------------
      1 Sb    c    0.412668    0.412668    0.412668      0.6200    1.000000    
      2 Sb    c    0.603203    0.603203    0.603203      0.6200    1.000000    
      3 Te1   c    0.000000    0.000000    0.000000     -0.5000    1.000000    
      4 Te2   c    0.784571    0.784571    0.784571     -0.3700    1.000000    
      5 Te2   c    0.215429    0.215429    0.215429     -0.3700    1.000000    
--------------------------------------------------------------------------------



********************************************************************************
*  Input for Configuration =  13                                               *
********************************************************************************

  Formula = Sb2Te3                                                      

  Number of irreducible atoms/shells =       5


  Total number atoms/shells =       5

  Dimensionality = 3               :  Bulk   



  Cartesian lattice vectors (Angstroms) :

       -2.504286    0.000000   10.443767
        1.252143   -2.168775   10.443767
        1.252143    2.168775   10.443767

  Cell parameters (Angstroms/Degrees):

  a =      10.7398    alpha =  23.3006
  b =      10.7398    beta  =  23.3006
  c =      10.7398    gamma =  23.3006

  Initial cell volume =         170.167643 Angs**3

  Temperature of configuration =  0.000     K 

  Pressure of configuration =         0.000 GPa 

  Fractional coordinates of asymmetric unit :

--------------------------------------------------------------------------------
   No.  Atomic       x           y          z         Charge      Occupancy
        Label      (Frac)      (Frac)     (Frac)        (e)         (Frac)  
--------------------------------------------------------------------------------
      1 Sb    c    0.416636    0.416636    0.416636      0.6200    1.000000    
      2 Sb    c    0.603203    0.603203    0.603203      0.6200    1.000000    
      3 Te1   c    0.000000    0.000000    0.000000     -0.5000    1.000000    
      4 Te2   c    0.784571    0.784571    0.784571     -0.3700    1.000000    
      5 Te2   c    0.215429    0.215429    0.215429     -0.3700    1.000000    
--------------------------------------------------------------------------------



********************************************************************************
*  Input for Configuration =  14                                               *
********************************************************************************

  Formula = Sb2Te3                                                      

  Number of irreducible atoms/shells =       5


  Total number atoms/shells =       5

  Dimensionality = 3               :  Bulk   



  Cartesian lattice vectors (Angstroms) :

       -2.504286    0.000000   10.443767
        1.252143   -2.168775   10.443767
        1.252143    2.168775   10.443767

  Cell parameters (Angstroms/Degrees):

  a =      10.7398    alpha =  23.3006
  b =      10.7398    beta  =  23.3006
  c =      10.7398    gamma =  23.3006

  Initial cell volume =         170.167643 Angs**3

  Temperature of configuration =  0.000     K 

  Pressure of configuration =         0.000 GPa 

  Fractional coordinates of asymmetric unit :

--------------------------------------------------------------------------------
   No.  Atomic       x           y          z         Charge      Occupancy
        Label      (Frac)      (Frac)     (Frac)        (e)         (Frac)  
--------------------------------------------------------------------------------
      1 Sb    c    0.420604    0.420604    0.420604      0.6200    1.000000    
      2 Sb    c    0.603203    0.603203    0.603203      0.6200    1.000000    
      3 Te1   c    0.000000    0.000000    0.000000     -0.5000    1.000000    
      4 Te2   c    0.784571    0.784571    0.784571     -0.3700    1.000000    
      5 Te2   c    0.215429    0.215429    0.215429     -0.3700    1.000000    
--------------------------------------------------------------------------------



********************************************************************************
*  Input for Configuration =  15                                               *
********************************************************************************

  Formula = Sb2Te3                                                      

  Number of irreducible atoms/shells =       5


  Total number atoms/shells =       5

  Dimensionality = 3               :  Bulk   



  Cartesian lattice vectors (Angstroms) :

       -2.504286    0.000000   10.443767
        1.252143   -2.168775   10.443767
        1.252143    2.168775   10.443767

  Cell parameters (Angstroms/Degrees):

  a =      10.7398    alpha =  23.3006
  b =      10.7398    beta  =  23.3006
  c =      10.7398    gamma =  23.3006

  Initial cell volume =         170.167643 Angs**3

  Temperature of configuration =  0.000     K 

  Pressure of configuration =         0.000 GPa 

  Fractional coordinates of asymmetric unit :

--------------------------------------------------------------------------------
   No.  Atomic       x           y          z         Charge      Occupancy
        Label      (Frac)      (Frac)     (Frac)        (e)         (Frac)  
--------------------------------------------------------------------------------
      1 Sb    c    0.424572    0.424572    0.424572      0.6200    1.000000    
      2 Sb    c    0.603203    0.603203    0.603203      0.6200    1.000000    
      3 Te1   c    0.000000    0.000000    0.000000     -0.5000    1.000000    
      4 Te2   c    0.784571    0.784571    0.784571     -0.3700    1.000000    
      5 Te2   c    0.215429    0.215429    0.215429     -0.3700    1.000000    
--------------------------------------------------------------------------------



********************************************************************************
*  Input for Configuration =  16                                               *
********************************************************************************

  Formula = Sb2Te3                                                      

  Number of irreducible atoms/shells =       5


  Total number atoms/shells =       5

  Dimensionality = 3               :  Bulk   



  Cartesian lattice vectors (Angstroms) :

       -2.504286    0.000000   10.443767
        1.252143   -2.168775   10.443767
        1.252143    2.168775   10.443767

  Cell parameters (Angstroms/Degrees):

  a =      10.7398    alpha =  23.3006
  b =      10.7398    beta  =  23.3006
  c =      10.7398    gamma =  23.3006

  Initial cell volume =         170.167643 Angs**3

  Temperature of configuration =  0.000     K 

  Pressure of configuration =         0.000 GPa 

  Fractional coordinates of asymmetric unit :

--------------------------------------------------------------------------------
   No.  Atomic       x           y          z         Charge      Occupancy
        Label      (Frac)      (Frac)     (Frac)        (e)         (Frac)  
--------------------------------------------------------------------------------
      1 Sb    c    0.396797    0.396797    0.396797      0.6200    1.000000    
      2 Sb    c    0.560979    0.560979    0.560979      0.6200    1.000000    
      3 Te1   c    0.000000    0.000000    0.000000     -0.5000    1.000000    
      4 Te2   c    0.784571    0.784571    0.784571     -0.3700    1.000000    
      5 Te2   c    0.215429    0.215429    0.215429     -0.3700    1.000000    
--------------------------------------------------------------------------------



********************************************************************************
*  Input for Configuration =  17                                               *
********************************************************************************

  Formula = Sb2Te3                                                      

  Number of irreducible atoms/shells =       5


  Total number atoms/shells =       5

  Dimensionality = 3               :  Bulk   



  Cartesian lattice vectors (Angstroms) :

       -2.504286    0.000000   10.443767
        1.252143   -2.168775   10.443767
        1.252143    2.168775   10.443767

  Cell parameters (Angstroms/Degrees):

  a =      10.7398    alpha =  23.3006
  b =      10.7398    beta  =  23.3006
  c =      10.7398    gamma =  23.3006

  Initial cell volume =         170.167643 Angs**3

  Temperature of configuration =  0.000     K 

  Pressure of configuration =         0.000 GPa 

  Fractional coordinates of asymmetric unit :

--------------------------------------------------------------------------------
   No.  Atomic       x           y          z         Charge      Occupancy
        Label      (Frac)      (Frac)     (Frac)        (e)         (Frac)  
--------------------------------------------------------------------------------
      1 Sb    c    0.396797    0.396797    0.396797      0.6200    1.000000    
      2 Sb    c    0.567011    0.567011    0.567011      0.6200    1.000000    
      3 Te1   c    0.000000    0.000000    0.000000     -0.5000    1.000000    
      4 Te2   c    0.784571    0.784571    0.784571     -0.3700    1.000000    
      5 Te2   c    0.215429    0.215429    0.215429     -0.3700    1.000000    
--------------------------------------------------------------------------------



********************************************************************************
*  Input for Configuration =  18                                               *
********************************************************************************

  Formula = Sb2Te3                                                      

  Number of irreducible atoms/shells =       5


  Total number atoms/shells =       5

  Dimensionality = 3               :  Bulk   



  Cartesian lattice vectors (Angstroms) :

       -2.504286    0.000000   10.443767
        1.252143   -2.168775   10.443767
        1.252143    2.168775   10.443767

  Cell parameters (Angstroms/Degrees):

  a =      10.7398    alpha =  23.3006
  b =      10.7398    beta  =  23.3006
  c =      10.7398    gamma =  23.3006

  Initial cell volume =         170.167643 Angs**3

  Temperature of configuration =  0.000     K 

  Pressure of configuration =         0.000 GPa 

  Fractional coordinates of asymmetric unit :

--------------------------------------------------------------------------------
   No.  Atomic       x           y          z         Charge      Occupancy
        Label      (Frac)      (Frac)     (Frac)        (e)         (Frac)  
--------------------------------------------------------------------------------
      1 Sb    c    0.396797    0.396797    0.396797      0.6200    1.000000    
      2 Sb    c    0.573043    0.573043    0.573043      0.6200    1.000000    
      3 Te1   c    0.000000    0.000000    0.000000     -0.5000    1.000000    
      4 Te2   c    0.784571    0.784571    0.784571     -0.3700    1.000000    
      5 Te2   c    0.215429    0.215429    0.215429     -0.3700    1.000000    
--------------------------------------------------------------------------------



********************************************************************************
*  Input for Configuration =  19                                               *
********************************************************************************

  Formula = Sb2Te3                                                      

  Number of irreducible atoms/shells =       5


  Total number atoms/shells =       5

  Dimensionality = 3               :  Bulk   



  Cartesian lattice vectors (Angstroms) :

       -2.504286    0.000000   10.443767
        1.252143   -2.168775   10.443767
        1.252143    2.168775   10.443767

  Cell parameters (Angstroms/Degrees):

  a =      10.7398    alpha =  23.3006
  b =      10.7398    beta  =  23.3006
  c =      10.7398    gamma =  23.3006

  Initial cell volume =         170.167643 Angs**3

  Temperature of configuration =  0.000     K 

  Pressure of configuration =         0.000 GPa 

  Fractional coordinates of asymmetric unit :

--------------------------------------------------------------------------------
   No.  Atomic       x           y          z         Charge      Occupancy
        Label      (Frac)      (Frac)     (Frac)        (e)         (Frac)  
--------------------------------------------------------------------------------
      1 Sb    c    0.396797    0.396797    0.396797      0.6200    1.000000    
      2 Sb    c    0.579075    0.579075    0.579075      0.6200    1.000000    
      3 Te1   c    0.000000    0.000000    0.000000     -0.5000    1.000000    
      4 Te2   c    0.784571    0.784571    0.784571     -0.3700    1.000000    
      5 Te2   c    0.215429    0.215429    0.215429     -0.3700    1.000000    
--------------------------------------------------------------------------------



********************************************************************************
*  Input for Configuration =  20                                               *
********************************************************************************

  Formula = Sb2Te3                                                      

  Number of irreducible atoms/shells =       5


  Total number atoms/shells =       5

  Dimensionality = 3               :  Bulk   



  Cartesian lattice vectors (Angstroms) :

       -2.504286    0.000000   10.443767
        1.252143   -2.168775   10.443767
        1.252143    2.168775   10.443767

  Cell parameters (Angstroms/Degrees):

  a =      10.7398    alpha =  23.3006
  b =      10.7398    beta  =  23.3006
  c =      10.7398    gamma =  23.3006

  Initial cell volume =         170.167643 Angs**3

  Temperature of configuration =  0.000     K 

  Pressure of configuration =         0.000 GPa 

  Fractional coordinates of asymmetric unit :

--------------------------------------------------------------------------------
   No.  Atomic       x           y          z         Charge      Occupancy
        Label      (Frac)      (Frac)     (Frac)        (e)         (Frac)  
--------------------------------------------------------------------------------
      1 Sb    c    0.396797    0.396797    0.396797      0.6200    1.000000    
      2 Sb    c    0.585107    0.585107    0.585107      0.6200    1.000000    
      3 Te1   c    0.000000    0.000000    0.000000     -0.5000    1.000000    
      4 Te2   c    0.784571    0.784571    0.784571     -0.3700    1.000000    
      5 Te2   c    0.215429    0.215429    0.215429     -0.3700    1.000000    
--------------------------------------------------------------------------------



********************************************************************************
*  Input for Configuration =  21                                               *
********************************************************************************

  Formula = Sb2Te3                                                      

  Number of irreducible atoms/shells =       5


  Total number atoms/shells =       5

  Dimensionality = 3               :  Bulk   



  Cartesian lattice vectors (Angstroms) :

       -2.504286    0.000000   10.443767
        1.252143   -2.168775   10.443767
        1.252143    2.168775   10.443767

  Cell parameters (Angstroms/Degrees):

  a =      10.7398    alpha =  23.3006
  b =      10.7398    beta  =  23.3006
  c =      10.7398    gamma =  23.3006

  Initial cell volume =         170.167643 Angs**3

  Temperature of configuration =  0.000     K 

  Pressure of configuration =         0.000 GPa 

  Fractional coordinates of asymmetric unit :

--------------------------------------------------------------------------------
   No.  Atomic       x           y          z         Charge      Occupancy
        Label      (Frac)      (Frac)     (Frac)        (e)         (Frac)  
--------------------------------------------------------------------------------
      1 Sb    c    0.396797    0.396797    0.396797      0.6200    1.000000    
      2 Sb    c    0.591139    0.591139    0.591139      0.6200    1.000000    
      3 Te1   c    0.000000    0.000000    0.000000     -0.5000    1.000000    
      4 Te2   c    0.784571    0.784571    0.784571     -0.3700    1.000000    
      5 Te2   c    0.215429    0.215429    0.215429     -0.3700    1.000000    
--------------------------------------------------------------------------------



********************************************************************************
*  Input for Configuration =  22                                               *
********************************************************************************

  Formula = Sb2Te3                                                      

  Number of irreducible atoms/shells =       5


  Total number atoms/shells =       5

  Dimensionality = 3               :  Bulk   



  Cartesian lattice vectors (Angstroms) :

       -2.504286    0.000000   10.443767
        1.252143   -2.168775   10.443767
        1.252143    2.168775   10.443767

  Cell parameters (Angstroms/Degrees):

  a =      10.7398    alpha =  23.3006
  b =      10.7398    beta  =  23.3006
  c =      10.7398    gamma =  23.3006

  Initial cell volume =         170.167643 Angs**3

  Temperature of configuration =  0.000     K 

  Pressure of configuration =         0.000 GPa 

  Fractional coordinates of asymmetric unit :

--------------------------------------------------------------------------------
   No.  Atomic       x           y          z         Charge      Occupancy
        Label      (Frac)      (Frac)     (Frac)        (e)         (Frac)  
--------------------------------------------------------------------------------
      1 Sb    c    0.396797    0.396797    0.396797      0.6200    1.000000    
      2 Sb    c    0.597171    0.597171    0.597171      0.6200    1.000000    
      3 Te1   c    0.000000    0.000000    0.000000     -0.5000    1.000000    
      4 Te2   c    0.784571    0.784571    0.784571     -0.3700    1.000000    
      5 Te2   c    0.215429    0.215429    0.215429     -0.3700    1.000000    
--------------------------------------------------------------------------------



********************************************************************************
*  Input for Configuration =  23                                               *
********************************************************************************

  Formula = Sb2Te3                                                      

  Number of irreducible atoms/shells =       5


  Total number atoms/shells =       5

  Dimensionality = 3               :  Bulk   



  Cartesian lattice vectors (Angstroms) :

       -2.504286    0.000000   10.443767
        1.252143   -2.168775   10.443767
        1.252143    2.168775   10.443767

  Cell parameters (Angstroms/Degrees):

  a =      10.7398    alpha =  23.3006
  b =      10.7398    beta  =  23.3006
  c =      10.7398    gamma =  23.3006

  Initial cell volume =         170.167643 Angs**3

  Temperature of configuration =  0.000     K 

  Pressure of configuration =         0.000 GPa 

  Fractional coordinates of asymmetric unit :

--------------------------------------------------------------------------------
   No.  Atomic       x           y          z         Charge      Occupancy
        Label      (Frac)      (Frac)     (Frac)        (e)         (Frac)  
--------------------------------------------------------------------------------
      1 Sb    c    0.396797    0.396797    0.396797      0.6200    1.000000    
      2 Sb    c    0.603203    0.603203    0.603203      0.6200    1.000000    
      3 Te1   c    0.000000    0.000000    0.000000     -0.5000    1.000000    
      4 Te2   c    0.784571    0.784571    0.784571     -0.3700    1.000000    
      5 Te2   c    0.215429    0.215429    0.215429     -0.3700    1.000000    
--------------------------------------------------------------------------------



********************************************************************************
*  Input for Configuration =  24                                               *
********************************************************************************

  Formula = Sb2Te3                                                      

  Number of irreducible atoms/shells =       5


  Total number atoms/shells =       5

  Dimensionality = 3               :  Bulk   



  Cartesian lattice vectors (Angstroms) :

       -2.504286    0.000000   10.443767
        1.252143   -2.168775   10.443767
        1.252143    2.168775   10.443767

  Cell parameters (Angstroms/Degrees):

  a =      10.7398    alpha =  23.3006
  b =      10.7398    beta  =  23.3006
  c =      10.7398    gamma =  23.3006

  Initial cell volume =         170.167643 Angs**3

  Temperature of configuration =  0.000     K 

  Pressure of configuration =         0.000 GPa 

  Fractional coordinates of asymmetric unit :

--------------------------------------------------------------------------------
   No.  Atomic       x           y          z         Charge      Occupancy
        Label      (Frac)      (Frac)     (Frac)        (e)         (Frac)  
--------------------------------------------------------------------------------
      1 Sb    c    0.396797    0.396797    0.396797      0.6200    1.000000    
      2 Sb    c    0.609235    0.609235    0.609235      0.6200    1.000000    
      3 Te1   c    0.000000    0.000000    0.000000     -0.5000    1.000000    
      4 Te2   c    0.784571    0.784571    0.784571     -0.3700    1.000000    
      5 Te2   c    0.215429    0.215429    0.215429     -0.3700    1.000000    
--------------------------------------------------------------------------------



********************************************************************************
*  Input for Configuration =  25                                               *
********************************************************************************

  Formula = Sb2Te3                                                      

  Number of irreducible atoms/shells =       5


  Total number atoms/shells =       5

  Dimensionality = 3               :  Bulk   



  Cartesian lattice vectors (Angstroms) :

       -2.504286    0.000000   10.443767
        1.252143   -2.168775   10.443767
        1.252143    2.168775   10.443767

  Cell parameters (Angstroms/Degrees):

  a =      10.7398    alpha =  23.3006
  b =      10.7398    beta  =  23.3006
  c =      10.7398    gamma =  23.3006

  Initial cell volume =         170.167643 Angs**3

  Temperature of configuration =  0.000     K 

  Pressure of configuration =         0.000 GPa 

  Fractional coordinates of asymmetric unit :

--------------------------------------------------------------------------------
   No.  Atomic       x           y          z         Charge      Occupancy
        Label      (Frac)      (Frac)     (Frac)        (e)         (Frac)  
--------------------------------------------------------------------------------
      1 Sb    c    0.396797    0.396797    0.396797      0.6200    1.000000    
      2 Sb    c    0.615267    0.615267    0.615267      0.6200    1.000000    
      3 Te1   c    0.000000    0.000000    0.000000     -0.5000    1.000000    
      4 Te2   c    0.784571    0.784571    0.784571     -0.3700    1.000000    
      5 Te2   c    0.215429    0.215429    0.215429     -0.3700    1.000000    
--------------------------------------------------------------------------------



********************************************************************************
*  Input for Configuration =  26                                               *
********************************************************************************

  Formula = Sb2Te3                                                      

  Number of irreducible atoms/shells =       5


  Total number atoms/shells =       5

  Dimensionality = 3               :  Bulk   



  Cartesian lattice vectors (Angstroms) :

       -2.504286    0.000000   10.443767
        1.252143   -2.168775   10.443767
        1.252143    2.168775   10.443767

  Cell parameters (Angstroms/Degrees):

  a =      10.7398    alpha =  23.3006
  b =      10.7398    beta  =  23.3006
  c =      10.7398    gamma =  23.3006

  Initial cell volume =         170.167643 Angs**3

  Temperature of configuration =  0.000     K 

  Pressure of configuration =         0.000 GPa 

  Fractional coordinates of asymmetric unit :

--------------------------------------------------------------------------------
   No.  Atomic       x           y          z         Charge      Occupancy
        Label      (Frac)      (Frac)     (Frac)        (e)         (Frac)  
--------------------------------------------------------------------------------
      1 Sb    c    0.396797    0.396797    0.396797      0.6200    1.000000    
      2 Sb    c    0.621300    0.621300    0.621300      0.6200    1.000000    
      3 Te1   c    0.000000    0.000000    0.000000     -0.5000    1.000000    
      4 Te2   c    0.784571    0.784571    0.784571     -0.3700    1.000000    
      5 Te2   c    0.215429    0.215429    0.215429     -0.3700    1.000000    
--------------------------------------------------------------------------------



********************************************************************************
*  Input for Configuration =  27                                               *
********************************************************************************

  Formula = Sb2Te3                                                      

  Number of irreducible atoms/shells =       5


  Total number atoms/shells =       5

  Dimensionality = 3               :  Bulk   



  Cartesian lattice vectors (Angstroms) :

       -2.504286    0.000000   10.443767
        1.252143   -2.168775   10.443767
        1.252143    2.168775   10.443767

  Cell parameters (Angstroms/Degrees):

  a =      10.7398    alpha =  23.3006
  b =      10.7398    beta  =  23.3006
  c =      10.7398    gamma =  23.3006

  Initial cell volume =         170.167643 Angs**3

  Temperature of configuration =  0.000     K 

  Pressure of configuration =         0.000 GPa 

  Fractional coordinates of asymmetric unit :

--------------------------------------------------------------------------------
   No.  Atomic       x           y          z         Charge      Occupancy
        Label      (Frac)      (Frac)     (Frac)        (e)         (Frac)  
--------------------------------------------------------------------------------
      1 Sb    c    0.396797    0.396797    0.396797      0.6200    1.000000    
      2 Sb    c    0.627332    0.627332    0.627332      0.6200    1.000000    
      3 Te1   c    0.000000    0.000000    0.000000     -0.5000    1.000000    
      4 Te2   c    0.784571    0.784571    0.784571     -0.3700    1.000000    
      5 Te2   c    0.215429    0.215429    0.215429     -0.3700    1.000000    
--------------------------------------------------------------------------------



********************************************************************************
*  Input for Configuration =  28                                               *
********************************************************************************

  Formula = Sb2Te3                                                      

  Number of irreducible atoms/shells =       5


  Total number atoms/shells =       5

  Dimensionality = 3               :  Bulk   



  Cartesian lattice vectors (Angstroms) :

       -2.504286    0.000000   10.443767
        1.252143   -2.168775   10.443767
        1.252143    2.168775   10.443767

  Cell parameters (Angstroms/Degrees):

  a =      10.7398    alpha =  23.3006
  b =      10.7398    beta  =  23.3006
  c =      10.7398    gamma =  23.3006

  Initial cell volume =         170.167643 Angs**3

  Temperature of configuration =  0.000     K 

  Pressure of configuration =         0.000 GPa 

  Fractional coordinates of asymmetric unit :

--------------------------------------------------------------------------------
   No.  Atomic       x           y          z         Charge      Occupancy
        Label      (Frac)      (Frac)     (Frac)        (e)         (Frac)  
--------------------------------------------------------------------------------
      1 Sb    c    0.396797    0.396797    0.396797      0.6200    1.000000    
      2 Sb    c    0.633364    0.633364    0.633364      0.6200    1.000000    
      3 Te1   c    0.000000    0.000000    0.000000     -0.5000    1.000000    
      4 Te2   c    0.784571    0.784571    0.784571     -0.3700    1.000000    
      5 Te2   c    0.215429    0.215429    0.215429     -0.3700    1.000000    
--------------------------------------------------------------------------------



********************************************************************************
*  Input for Configuration =  29                                               *
********************************************************************************

  Formula = Sb2Te3                                                      

  Number of irreducible atoms/shells =       5


  Total number atoms/shells =       5

  Dimensionality = 3               :  Bulk   



  Cartesian lattice vectors (Angstroms) :

       -2.504286    0.000000   10.443767
        1.252143   -2.168775   10.443767
        1.252143    2.168775   10.443767

  Cell parameters (Angstroms/Degrees):

  a =      10.7398    alpha =  23.3006
  b =      10.7398    beta  =  23.3006
  c =      10.7398    gamma =  23.3006

  Initial cell volume =         170.167643 Angs**3

  Temperature of configuration =  0.000     K 

  Pressure of configuration =         0.000 GPa 

  Fractional coordinates of asymmetric unit :

--------------------------------------------------------------------------------
   No.  Atomic       x           y          z         Charge      Occupancy
        Label      (Frac)      (Frac)     (Frac)        (e)         (Frac)  
--------------------------------------------------------------------------------
      1 Sb    c    0.396797    0.396797    0.396797      0.6200    1.000000    
      2 Sb    c    0.639396    0.639396    0.639396      0.6200    1.000000    
      3 Te1   c    0.000000    0.000000    0.000000     -0.5000    1.000000    
      4 Te2   c    0.784571    0.784571    0.784571     -0.3700    1.000000    
      5 Te2   c    0.215429    0.215429    0.215429     -0.3700    1.000000    
--------------------------------------------------------------------------------



********************************************************************************
*  Input for Configuration =  30                                               *
********************************************************************************

  Formula = Sb2Te3                                                      

  Number of irreducible atoms/shells =       5


  Total number atoms/shells =       5

  Dimensionality = 3               :  Bulk   



  Cartesian lattice vectors (Angstroms) :

       -2.504286    0.000000   10.443767
        1.252143   -2.168775   10.443767
        1.252143    2.168775   10.443767

  Cell parameters (Angstroms/Degrees):

  a =      10.7398    alpha =  23.3006
  b =      10.7398    beta  =  23.3006
  c =      10.7398    gamma =  23.3006

  Initial cell volume =         170.167643 Angs**3

  Temperature of configuration =  0.000     K 

  Pressure of configuration =         0.000 GPa 

  Fractional coordinates of asymmetric unit :

--------------------------------------------------------------------------------
   No.  Atomic       x           y          z         Charge      Occupancy
        Label      (Frac)      (Frac)     (Frac)        (e)         (Frac)  
--------------------------------------------------------------------------------
      1 Sb    c    0.396797    0.396797    0.396797      0.6200    1.000000    
      2 Sb    c    0.645428    0.645428    0.645428      0.6200    1.000000    
      3 Te1   c    0.000000    0.000000    0.000000     -0.5000    1.000000    
      4 Te2   c    0.784571    0.784571    0.784571     -0.3700    1.000000    
      5 Te2   c    0.215429    0.215429    0.215429     -0.3700    1.000000    
--------------------------------------------------------------------------------



********************************************************************************
*  Input for Configuration =  31                                               *
********************************************************************************

  Formula = Sb2Te3                                                      

  Number of irreducible atoms/shells =       5


  Total number atoms/shells =       5

  Dimensionality = 3               :  Bulk   



  Cartesian lattice vectors (Angstroms) :

       -2.504286    0.000000   10.443767
        1.252143   -2.168775   10.443767
        1.252143    2.168775   10.443767

  Cell parameters (Angstroms/Degrees):

  a =      10.7398    alpha =  23.3006
  b =      10.7398    beta  =  23.3006
  c =      10.7398    gamma =  23.3006

  Initial cell volume =         170.167643 Angs**3

  Temperature of configuration =  0.000     K 

  Pressure of configuration =         0.000 GPa 

  Fractional coordinates of asymmetric unit :

--------------------------------------------------------------------------------
   No.  Atomic       x           y          z         Charge      Occupancy
        Label      (Frac)      (Frac)     (Frac)        (e)         (Frac)  
--------------------------------------------------------------------------------
      1 Sb    c    0.396797    0.396797    0.396797      0.6200    1.000000    
      2 Sb    c    0.603203    0.603203    0.603203      0.6200    1.000000    
      3 Te1   c    0.930000    0.930000    0.930000     -0.5000    1.000000    
      4 Te2   c    0.784571    0.784571    0.784571     -0.3700    1.000000    
      5 Te2   c    0.215429    0.215429    0.215429     -0.3700    1.000000    
--------------------------------------------------------------------------------



********************************************************************************
*  Input for Configuration =  32                                               *
********************************************************************************

  Formula = Sb2Te3                                                      

  Number of irreducible atoms/shells =       5


  Total number atoms/shells =       5

  Dimensionality = 3               :  Bulk   



  Cartesian lattice vectors (Angstroms) :

       -2.504286    0.000000   10.443767
        1.252143   -2.168775   10.443767
        1.252143    2.168775   10.443767

  Cell parameters (Angstroms/Degrees):

  a =      10.7398    alpha =  23.3006
  b =      10.7398    beta  =  23.3006
  c =      10.7398    gamma =  23.3006

  Initial cell volume =         170.167643 Angs**3

  Temperature of configuration =  0.000     K 

  Pressure of configuration =         0.000 GPa 

  Fractional coordinates of asymmetric unit :

--------------------------------------------------------------------------------
   No.  Atomic       x           y          z         Charge      Occupancy
        Label      (Frac)      (Frac)     (Frac)        (e)         (Frac)  
--------------------------------------------------------------------------------
      1 Sb    c    0.396797    0.396797    0.396797      0.6200    1.000000    
      2 Sb    c    0.603203    0.603203    0.603203      0.6200    1.000000    
      3 Te1   c    0.940000    0.940000    0.940000     -0.5000    1.000000    
      4 Te2   c    0.784571    0.784571    0.784571     -0.3700    1.000000    
      5 Te2   c    0.215429    0.215429    0.215429     -0.3700    1.000000    
--------------------------------------------------------------------------------



********************************************************************************
*  Input for Configuration =  33                                               *
********************************************************************************

  Formula = Sb2Te3                                                      

  Number of irreducible atoms/shells =       5


  Total number atoms/shells =       5

  Dimensionality = 3               :  Bulk   



  Cartesian lattice vectors (Angstroms) :

       -2.504286    0.000000   10.443767
        1.252143   -2.168775   10.443767
        1.252143    2.168775   10.443767

  Cell parameters (Angstroms/Degrees):

  a =      10.7398    alpha =  23.3006
  b =      10.7398    beta  =  23.3006
  c =      10.7398    gamma =  23.3006

  Initial cell volume =         170.167643 Angs**3

  Temperature of configuration =  0.000     K 

  Pressure of configuration =         0.000 GPa 

  Fractional coordinates of asymmetric unit :

--------------------------------------------------------------------------------
   No.  Atomic       x           y          z         Charge      Occupancy
        Label      (Frac)      (Frac)     (Frac)        (e)         (Frac)  
--------------------------------------------------------------------------------
      1 Sb    c    0.396797    0.396797    0.396797      0.6200    1.000000    
      2 Sb    c    0.603203    0.603203    0.603203      0.6200    1.000000    
      3 Te1   c    0.950000    0.950000    0.950000     -0.5000    1.000000    
      4 Te2   c    0.784571    0.784571    0.784571     -0.3700    1.000000    
      5 Te2   c    0.215429    0.215429    0.215429     -0.3700    1.000000    
--------------------------------------------------------------------------------



********************************************************************************
*  Input for Configuration =  34                                               *
********************************************************************************

  Formula = Sb2Te3                                                      

  Number of irreducible atoms/shells =       5


  Total number atoms/shells =       5

  Dimensionality = 3               :  Bulk   



  Cartesian lattice vectors (Angstroms) :

       -2.504286    0.000000   10.443767
        1.252143   -2.168775   10.443767
        1.252143    2.168775   10.443767

  Cell parameters (Angstroms/Degrees):

  a =      10.7398    alpha =  23.3006
  b =      10.7398    beta  =  23.3006
  c =      10.7398    gamma =  23.3006

  Initial cell volume =         170.167643 Angs**3

  Temperature of configuration =  0.000     K 

  Pressure of configuration =         0.000 GPa 

  Fractional coordinates of asymmetric unit :

--------------------------------------------------------------------------------
   No.  Atomic       x           y          z         Charge      Occupancy
        Label      (Frac)      (Frac)     (Frac)        (e)         (Frac)  
--------------------------------------------------------------------------------
      1 Sb    c    0.396797    0.396797    0.396797      0.6200    1.000000    
      2 Sb    c    0.603203    0.603203    0.603203      0.6200    1.000000    
      3 Te1   c    0.960000    0.960000    0.960000     -0.5000    1.000000    
      4 Te2   c    0.784571    0.784571    0.784571     -0.3700    1.000000    
      5 Te2   c    0.215429    0.215429    0.215429     -0.3700    1.000000    
--------------------------------------------------------------------------------



********************************************************************************
*  Input for Configuration =  35                                               *
********************************************************************************

  Formula = Sb2Te3                                                      

  Number of irreducible atoms/shells =       5


  Total number atoms/shells =       5

  Dimensionality = 3               :  Bulk   



  Cartesian lattice vectors (Angstroms) :

       -2.504286    0.000000   10.443767
        1.252143   -2.168775   10.443767
        1.252143    2.168775   10.443767

  Cell parameters (Angstroms/Degrees):

  a =      10.7398    alpha =  23.3006
  b =      10.7398    beta  =  23.3006
  c =      10.7398    gamma =  23.3006

  Initial cell volume =         170.167643 Angs**3

  Temperature of configuration =  0.000     K 

  Pressure of configuration =         0.000 GPa 

  Fractional coordinates of asymmetric unit :

--------------------------------------------------------------------------------
   No.  Atomic       x           y          z         Charge      Occupancy
        Label      (Frac)      (Frac)     (Frac)        (e)         (Frac)  
--------------------------------------------------------------------------------
      1 Sb    c    0.396797    0.396797    0.396797      0.6200    1.000000    
      2 Sb    c    0.603203    0.603203    0.603203      0.6200    1.000000    
      3 Te1   c    0.970000    0.970000    0.970000     -0.5000    1.000000    
      4 Te2   c    0.784571    0.784571    0.784571     -0.3700    1.000000    
      5 Te2   c    0.215429    0.215429    0.215429     -0.3700    1.000000    
--------------------------------------------------------------------------------



********************************************************************************
*  Input for Configuration =  36                                               *
********************************************************************************

  Formula = Sb2Te3                                                      

  Number of irreducible atoms/shells =       5


  Total number atoms/shells =       5

  Dimensionality = 3               :  Bulk   



  Cartesian lattice vectors (Angstroms) :

       -2.504286    0.000000   10.443767
        1.252143   -2.168775   10.443767
        1.252143    2.168775   10.443767

  Cell parameters (Angstroms/Degrees):

  a =      10.7398    alpha =  23.3006
  b =      10.7398    beta  =  23.3006
  c =      10.7398    gamma =  23.3006

  Initial cell volume =         170.167643 Angs**3

  Temperature of configuration =  0.000     K 

  Pressure of configuration =         0.000 GPa 

  Fractional coordinates of asymmetric unit :

--------------------------------------------------------------------------------
   No.  Atomic       x           y          z         Charge      Occupancy
        Label      (Frac)      (Frac)     (Frac)        (e)         (Frac)  
--------------------------------------------------------------------------------
      1 Sb    c    0.396797    0.396797    0.396797      0.6200    1.000000    
      2 Sb    c    0.603203    0.603203    0.603203      0.6200    1.000000    
      3 Te1   c    0.980000    0.980000    0.980000     -0.5000    1.000000    
      4 Te2   c    0.784571    0.784571    0.784571     -0.3700    1.000000    
      5 Te2   c    0.215429    0.215429    0.215429     -0.3700    1.000000    
--------------------------------------------------------------------------------



********************************************************************************
*  Input for Configuration =  37                                               *
********************************************************************************

  Formula = Sb2Te3                                                      

  Number of irreducible atoms/shells =       5


  Total number atoms/shells =       5

  Dimensionality = 3               :  Bulk   



  Cartesian lattice vectors (Angstroms) :

       -2.504286    0.000000   10.443767
        1.252143   -2.168775   10.443767
        1.252143    2.168775   10.443767

  Cell parameters (Angstroms/Degrees):

  a =      10.7398    alpha =  23.3006
  b =      10.7398    beta  =  23.3006
  c =      10.7398    gamma =  23.3006

  Initial cell volume =         170.167643 Angs**3

  Temperature of configuration =  0.000     K 

  Pressure of configuration =         0.000 GPa 

  Fractional coordinates of asymmetric unit :

--------------------------------------------------------------------------------
   No.  Atomic       x           y          z         Charge      Occupancy
        Label      (Frac)      (Frac)     (Frac)        (e)         (Frac)  
--------------------------------------------------------------------------------
      1 Sb    c    0.396797    0.396797    0.396797      0.6200    1.000000    
      2 Sb    c    0.603203    0.603203    0.603203      0.6200    1.000000    
      3 Te1   c    0.990000    0.990000    0.990000     -0.5000    1.000000    
      4 Te2   c    0.784571    0.784571    0.784571     -0.3700    1.000000    
      5 Te2   c    0.215429    0.215429    0.215429     -0.3700    1.000000    
--------------------------------------------------------------------------------



********************************************************************************
*  Input for Configuration =  38                                               *
********************************************************************************

  Formula = Sb2Te3                                                      

  Number of irreducible atoms/shells =       5


  Total number atoms/shells =       5

  Dimensionality = 3               :  Bulk   



  Cartesian lattice vectors (Angstroms) :

       -2.504286    0.000000   10.443767
        1.252143   -2.168775   10.443767
        1.252143    2.168775   10.443767

  Cell parameters (Angstroms/Degrees):

  a =      10.7398    alpha =  23.3006
  b =      10.7398    beta  =  23.3006
  c =      10.7398    gamma =  23.3006

  Initial cell volume =         170.167643 Angs**3

  Temperature of configuration =  0.000     K 

  Pressure of configuration =         0.000 GPa 

  Fractional coordinates of asymmetric unit :

--------------------------------------------------------------------------------
   No.  Atomic       x           y          z         Charge      Occupancy
        Label      (Frac)      (Frac)     (Frac)        (e)         (Frac)  
--------------------------------------------------------------------------------
      1 Sb    c    0.396797    0.396797    0.396797      0.6200    1.000000    
      2 Sb    c    0.603203    0.603203    0.603203      0.6200    1.000000    
      3 Te1   c    0.000000    0.000000    0.000000     -0.5000    1.000000    
      4 Te2   c    0.784571    0.784571    0.784571     -0.3700    1.000000    
      5 Te2   c    0.215429    0.215429    0.215429     -0.3700    1.000000    
--------------------------------------------------------------------------------



********************************************************************************
*  Input for Configuration =  39                                               *
********************************************************************************

  Formula = Sb2Te3                                                      

  Number of irreducible atoms/shells =       5


  Total number atoms/shells =       5

  Dimensionality = 3               :  Bulk   



  Cartesian lattice vectors (Angstroms) :

       -2.504286    0.000000   10.443767
        1.252143   -2.168775   10.443767
        1.252143    2.168775   10.443767

  Cell parameters (Angstroms/Degrees):

  a =      10.7398    alpha =  23.3006
  b =      10.7398    beta  =  23.3006
  c =      10.7398    gamma =  23.3006

  Initial cell volume =         170.167643 Angs**3

  Temperature of configuration =  0.000     K 

  Pressure of configuration =         0.000 GPa 

  Fractional coordinates of asymmetric unit :

--------------------------------------------------------------------------------
   No.  Atomic       x           y          z         Charge      Occupancy
        Label      (Frac)      (Frac)     (Frac)        (e)         (Frac)  
--------------------------------------------------------------------------------
      1 Sb    c    0.396797    0.396797    0.396797      0.6200    1.000000    
      2 Sb    c    0.603203    0.603203    0.603203      0.6200    1.000000    
      3 Te1   c    0.010000    0.010000    0.010000     -0.5000    1.000000    
      4 Te2   c    0.784571    0.784571    0.784571     -0.3700    1.000000    
      5 Te2   c    0.215429    0.215429    0.215429     -0.3700    1.000000    
--------------------------------------------------------------------------------



********************************************************************************
*  Input for Configuration =  40                                               *
********************************************************************************

  Formula = Sb2Te3                                                      

  Number of irreducible atoms/shells =       5


  Total number atoms/shells =       5

  Dimensionality = 3               :  Bulk   



  Cartesian lattice vectors (Angstroms) :

       -2.504286    0.000000   10.443767
        1.252143   -2.168775   10.443767
        1.252143    2.168775   10.443767

  Cell parameters (Angstroms/Degrees):

  a =      10.7398    alpha =  23.3006
  b =      10.7398    beta  =  23.3006
  c =      10.7398    gamma =  23.3006

  Initial cell volume =         170.167643 Angs**3

  Temperature of configuration =  0.000     K 

  Pressure of configuration =         0.000 GPa 

  Fractional coordinates of asymmetric unit :

--------------------------------------------------------------------------------
   No.  Atomic       x           y          z         Charge      Occupancy
        Label      (Frac)      (Frac)     (Frac)        (e)         (Frac)  
--------------------------------------------------------------------------------
      1 Sb    c    0.396797    0.396797    0.396797      0.6200    1.000000    
      2 Sb    c    0.603203    0.603203    0.603203      0.6200    1.000000    
      3 Te1   c    0.020000    0.020000    0.020000     -0.5000    1.000000    
      4 Te2   c    0.784571    0.784571    0.784571     -0.3700    1.000000    
      5 Te2   c    0.215429    0.215429    0.215429     -0.3700    1.000000    
--------------------------------------------------------------------------------



********************************************************************************
*  Input for Configuration =  41                                               *
********************************************************************************

  Formula = Sb2Te3                                                      

  Number of irreducible atoms/shells =       5


  Total number atoms/shells =       5

  Dimensionality = 3               :  Bulk   



  Cartesian lattice vectors (Angstroms) :

       -2.504286    0.000000   10.443767
        1.252143   -2.168775   10.443767
        1.252143    2.168775   10.443767

  Cell parameters (Angstroms/Degrees):

  a =      10.7398    alpha =  23.3006
  b =      10.7398    beta  =  23.3006
  c =      10.7398    gamma =  23.3006

  Initial cell volume =         170.167643 Angs**3

  Temperature of configuration =  0.000     K 

  Pressure of configuration =         0.000 GPa 

  Fractional coordinates of asymmetric unit :

--------------------------------------------------------------------------------
   No.  Atomic       x           y          z         Charge      Occupancy
        Label      (Frac)      (Frac)     (Frac)        (e)         (Frac)  
--------------------------------------------------------------------------------
      1 Sb    c    0.396797    0.396797    0.396797      0.6200    1.000000    
      2 Sb    c    0.603203    0.603203    0.603203      0.6200    1.000000    
      3 Te1   c    0.030000    0.030000    0.030000     -0.5000    1.000000    
      4 Te2   c    0.784571    0.784571    0.784571     -0.3700    1.000000    
      5 Te2   c    0.215429    0.215429    0.215429     -0.3700    1.000000    
--------------------------------------------------------------------------------



********************************************************************************
*  Input for Configuration =  42                                               *
********************************************************************************

  Formula = Sb2Te3                                                      

  Number of irreducible atoms/shells =       5


  Total number atoms/shells =       5

  Dimensionality = 3               :  Bulk   



  Cartesian lattice vectors (Angstroms) :

       -2.504286    0.000000   10.443767
        1.252143   -2.168775   10.443767
        1.252143    2.168775   10.443767

  Cell parameters (Angstroms/Degrees):

  a =      10.7398    alpha =  23.3006
  b =      10.7398    beta  =  23.3006
  c =      10.7398    gamma =  23.3006

  Initial cell volume =         170.167643 Angs**3

  Temperature of configuration =  0.000     K 

  Pressure of configuration =         0.000 GPa 

  Fractional coordinates of asymmetric unit :

--------------------------------------------------------------------------------
   No.  Atomic       x           y          z         Charge      Occupancy
        Label      (Frac)      (Frac)     (Frac)        (e)         (Frac)  
--------------------------------------------------------------------------------
      1 Sb    c    0.396797    0.396797    0.396797      0.6200    1.000000    
      2 Sb    c    0.603203    0.603203    0.603203      0.6200    1.000000    
      3 Te1   c    0.040000    0.040000    0.040000     -0.5000    1.000000    
      4 Te2   c    0.784571    0.784571    0.784571     -0.3700    1.000000    
      5 Te2   c    0.215429    0.215429    0.215429     -0.3700    1.000000    
--------------------------------------------------------------------------------



********************************************************************************
*  Input for Configuration =  43                                               *
********************************************************************************

  Formula = Sb2Te3                                                      

  Number of irreducible atoms/shells =       5


  Total number atoms/shells =       5

  Dimensionality = 3               :  Bulk   



  Cartesian lattice vectors (Angstroms) :

       -2.504286    0.000000   10.443767
        1.252143   -2.168775   10.443767
        1.252143    2.168775   10.443767

  Cell parameters (Angstroms/Degrees):

  a =      10.7398    alpha =  23.3006
  b =      10.7398    beta  =  23.3006
  c =      10.7398    gamma =  23.3006

  Initial cell volume =         170.167643 Angs**3

  Temperature of configuration =  0.000     K 

  Pressure of configuration =         0.000 GPa 

  Fractional coordinates of asymmetric unit :

--------------------------------------------------------------------------------
   No.  Atomic       x           y          z         Charge      Occupancy
        Label      (Frac)      (Frac)     (Frac)        (e)         (Frac)  
--------------------------------------------------------------------------------
      1 Sb    c    0.396797    0.396797    0.396797      0.6200    1.000000    
      2 Sb    c    0.603203    0.603203    0.603203      0.6200    1.000000    
      3 Te1   c    0.050000    0.050000    0.050000     -0.5000    1.000000    
      4 Te2   c    0.784571    0.784571    0.784571     -0.3700    1.000000    
      5 Te2   c    0.215429    0.215429    0.215429     -0.3700    1.000000    
--------------------------------------------------------------------------------



********************************************************************************
*  Input for Configuration =  44                                               *
********************************************************************************

  Formula = Sb2Te3                                                      

  Number of irreducible atoms/shells =       5


  Total number atoms/shells =       5

  Dimensionality = 3               :  Bulk   



  Cartesian lattice vectors (Angstroms) :

       -2.504286    0.000000   10.443767
        1.252143   -2.168775   10.443767
        1.252143    2.168775   10.443767

  Cell parameters (Angstroms/Degrees):

  a =      10.7398    alpha =  23.3006
  b =      10.7398    beta  =  23.3006
  c =      10.7398    gamma =  23.3006

  Initial cell volume =         170.167643 Angs**3

  Temperature of configuration =  0.000     K 

  Pressure of configuration =         0.000 GPa 

  Fractional coordinates of asymmetric unit :

--------------------------------------------------------------------------------
   No.  Atomic       x           y          z         Charge      Occupancy
        Label      (Frac)      (Frac)     (Frac)        (e)         (Frac)  
--------------------------------------------------------------------------------
      1 Sb    c    0.396797    0.396797    0.396797      0.6200    1.000000    
      2 Sb    c    0.603203    0.603203    0.603203      0.6200    1.000000    
      3 Te1   c    0.060000    0.060000    0.060000     -0.5000    1.000000    
      4 Te2   c    0.784571    0.784571    0.784571     -0.3700    1.000000    
      5 Te2   c    0.215429    0.215429    0.215429     -0.3700    1.000000    
--------------------------------------------------------------------------------



********************************************************************************
*  Input for Configuration =  45                                               *
********************************************************************************

  Formula = Sb2Te3                                                      

  Number of irreducible atoms/shells =       5


  Total number atoms/shells =       5

  Dimensionality = 3               :  Bulk   



  Cartesian lattice vectors (Angstroms) :

       -2.504286    0.000000   10.443767
        1.252143   -2.168775   10.443767
        1.252143    2.168775   10.443767

[...]



!!!!!!!!!!!!!!!!!!!!!!!!!!!!!!!!!!!!!!!!!!!!!!!!!!!!!!!!!!!!!!!!!!!!!!!!!!!!!!!!
!! WARNING : No variables to optimise - single point performed
!!!!!!!!!!!!!!!!!!!!!!!!!!!!!!!!!!!!!!!!!!!!!!!!!!!!!!!!!!!!!!!!!!!!!!!!!!!!!!!!


  Components of energy : 

--------------------------------------------------------------------------------
  Interatomic potentials     =          -0.71317702 eV
  Monopole - monopole (real) =          -1.14711619 eV
  Monopole - monopole (recip)=          -3.50045014 eV
  Monopole - monopole (total)=          -4.64756633 eV
  Energy shift               =         -12.88639378 eV
--------------------------------------------------------------------------------
  Total lattice energy       =         -18.24713713 eV
--------------------------------------------------------------------------------
  Total lattice energy       =           -1760.5698 kJ/(mole unit cells)
--------------------------------------------------------------------------------

  Born effective charge tensors : 

-------------------------------------------------------------------------------
  Atom             x           y             z
-------------------------------------------------------------------------------
   1 Sb    x       0.6200      0.0000      0.0000
           y       0.0000      0.6200      0.0000
           z       0.0000      0.0000      0.6200
-------------------------------------------------------------------------------
   2 Sb    x       0.6200      0.0000      0.0000
           y       0.0000      0.6200      0.0000
           z       0.0000      0.0000      0.6200
-------------------------------------------------------------------------------
   3 Te1   x      -0.5000      0.0000      0.0000
           y       0.0000     -0.5000      0.0000
           z       0.0000      0.0000     -0.5000
-------------------------------------------------------------------------------
   4 Te2   x      -0.3700      0.0000      0.0000
           y       0.0000     -0.3700      0.0000
           z       0.0000      0.0000     -0.3700
-------------------------------------------------------------------------------
   5 Te2   x      -0.3700      0.0000      0.0000
           y       0.0000     -0.3700      0.0000
           z       0.0000      0.0000     -0.3700
-------------------------------------------------------------------------------




  Elastic Constant Matrix: (Units=GPa)

-------------------------------------------------------------------------------
  Indices      1         2         3         4         5         6    
-------------------------------------------------------------------------------
       1     10.3549    4.0897    0.8251    2.9934    1.9380    3.2641
       2      4.0897    1.9883    7.6443   -3.8356   -6.0230   -1.4625
       3      0.8251    7.6443    5.2083    0.8830    4.2829   -1.4684
       4      2.9934   -3.8356    0.8830   -5.0632   -0.3823   -5.3781
       5      1.9380   -6.0230    4.2829   -0.3823   -6.8383    3.1263
       6      3.2641   -1.4625   -1.4684   -5.3781    3.1263   -3.4288
-------------------------------------------------------------------------------


  Elastic Compliance Matrix: (Units=1/GPa)

-------------------------------------------------------------------------------
  Indices      1         2         3         4         5         6    
-------------------------------------------------------------------------------
       1    0.086775  0.006175 -0.029444  0.065321 -0.012782 -0.021528
       2    0.006175  0.121913 -0.054066 -0.095019 -0.131254  0.006396
       3   -0.029444 -0.054066  0.157835  0.029143  0.141347  0.010604
       4    0.065321 -0.095019  0.029143  0.227890 -0.024780 -0.289813
       5   -0.012782 -0.131254  0.141347 -0.024780  0.112813  0.125013
       6   -0.021528  0.006396  0.010604 -0.289813  0.125013  0.249151
-------------------------------------------------------------------------------

 Mechanical properties :

-------------------------------------------------------------------------------
  Convention :                    Reuss         Voigt         Hill
-------------------------------------------------------------------------------
  Bulk  Modulus (GPa)     =       4.72026       4.74108       4.73067
  Shear Modulus (GPa)     =       4.23131      -2.73322       0.74904
-------------------------------------------------------------------------------
  Velocity S-wave (km/s)  =       2.63115      -2.11468       1.10703
  Velocity P-wave (km/s)  =       4.11746       1.33958       3.06170
-------------------------------------------------------------------------------
  Compressibility (1/GPa) =    0.21185261
-------------------------------------------------------------------------------
  Stress axis :                     x             y             z
-------------------------------------------------------------------------------
  Youngs Moduli (GPa)     =      11.52403       8.20254       6.33572
-------------------------------------------------------------------------------
  Poissons Ratio (x)      =                    -0.05065       0.18655
  Poissons Ratio (y)      =      -0.07116                     0.34255
  Poissons Ratio (z)      =       0.33932       0.44348
-------------------------------------------------------------------------------


  Piezoelectric Strain Matrix: (Units=C/m**2)

-------------------------------------------------------------------------------
  Indices      1         2         3         4         5         6    
-------------------------------------------------------------------------------
       x    -0.00000  -0.00000  -0.00000   0.00000   0.00000   0.00000
       y     0.00000  -0.00000  -0.00000  -0.00000   0.00000  -0.00000
       z     0.00000  -0.00000   0.00000  -0.00000  -0.00000   0.00000
-------------------------------------------------------------------------------


  Piezoelectric Stress Matrix: (Units=10**-11 C/N)

-------------------------------------------------------------------------------
  Indices      1         2         3         4         5         6    
-------------------------------------------------------------------------------
       x    -0.00001  -0.00001  -0.00001  -0.00000  -0.00000  -0.00000
       y    -0.00000   0.00000  -0.00000   0.00000  -0.00000   0.00001
       z    -0.00000  -0.00000   0.00000   0.00000   0.00001  -0.00000
-------------------------------------------------------------------------------


  Static dielectric constant tensor : 

-------------------------------------------------------------------------------
              x         y         z
-------------------------------------------------------------------------------
       x     2.32446   0.52002   0.30874
       y     0.52002  -0.09047   0.06366
       z     0.30874   0.06366  -0.15989
--------------------------------------------------------------------------------

  Static refractive indices : 

-------------------------------------------------------------------------------
    1 =   -0.44462      2 =   -0.44462      3 =    1.57145
-------------------------------------------------------------------------------


  Time to end of properties =     265.9926 seconds


********************************************************************************
*  Output for configuration 106                                                *
********************************************************************************


  Components of energy : 

--------------------------------------------------------------------------------
  Interatomic potentials     =          -0.71317702 eV
  Monopole - monopole (real) =          -1.14711619 eV
  Monopole - monopole (recip)=          -3.50045014 eV
  Monopole - monopole (total)=          -4.64756633 eV
  Energy shift               =         -12.88639378 eV
--------------------------------------------------------------------------------
  Total lattice energy       =         -18.24713713 eV
--------------------------------------------------------------------------------
  Total lattice energy       =           -1760.5698 kJ/(mole unit cells)
--------------------------------------------------------------------------------


  Number of variables =      6

  Maximum number of calculations  =          1000
  Maximum Hessian update interval =            10
  Maximum step size               =   1.000000000
  Maximum parameter tolerance     =   0.000010000
  Maximum function  tolerance     =   0.000010000
  Maximum gradient  tolerance     =   0.001000000
  Maximum gradient  component     =   0.010000000

  Symmetry not applied to optimisation

  Cell parameters to be optimised using strains

  Newton-Raphson optimiser to be used

  BFGS hessian update to be used

  Dumpfile to be written after every cycle

  Start of bulk optimisation :

  Cycle:      0 Energy:       -18.247137  Gnorm:      0.177905  CPU:  266.013
  ** Hessian calculated **
  Cycle:      1 Energy:       -18.298413  Gnorm:      0.032680  CPU:  266.021
  Cycle:      2 Energy:       -18.298663  Gnorm:      0.000958  CPU:  266.041


  **** Optimisation achieved ****


  Final energy =     -18.29866389 eV
  Final Gnorm  =       0.00014348

  Components of energy : 

--------------------------------------------------------------------------------
  Interatomic potentials     =          -0.64594255 eV
  Monopole - monopole (real) =          -1.17220870 eV
  Monopole - monopole (recip)=          -3.59411887 eV
  Monopole - monopole (total)=          -4.76632756 eV
  Energy shift               =         -12.88639378 eV
--------------------------------------------------------------------------------
  Total lattice energy       =         -18.29866389 eV
--------------------------------------------------------------------------------
  Total lattice energy       =           -1765.5413 kJ/(mole unit cells)
--------------------------------------------------------------------------------

  Final fractional coordinates of atoms :

--------------------------------------------------------------------------------
   No.  Atomic        x           y          z          Radius
        Label       (Frac)      (Frac)     (Frac)       (Angs) 
--------------------------------------------------------------------------------
     1  Sb    c     0.396797    0.396797    0.396797    0.000000
     2  Sb    c     0.603203    0.603203    0.603203    0.000000
     3  Te1   c     0.000000    0.000000    0.000000    0.000000
     4  Te2   c     0.784571    0.784571    0.784571    0.000000
     5  Te2   c     0.215429    0.215429    0.215429    0.000000
--------------------------------------------------------------------------------

  Final Cartesian lattice vectors (Angstroms) :

        9.946346   -0.250154   -0.148520
        9.036238    4.163986   -0.148520
        9.036238    1.863093    3.726891


  Final cell parameters and derivatives :

--------------------------------------------------------------------------------
       a            9.950599 Angstrom     dE/de1(xx)     0.000548 eV/strain
       b            9.950599 Angstrom     dE/de2(yy)     0.000470 eV/strain
       c            9.950599 Angstrom     dE/de3(zz)     0.000468 eV/strain
       alpha       26.178444 Degrees      dE/de4(yz)     0.000002 eV/strain
       beta        26.178444 Degrees      dE/de5(xz)     0.000010 eV/strain
       gamma       26.178444 Degrees      dE/de6(xy)     0.000017 eV/strain
--------------------------------------------------------------------------------

  Primitive cell volume =           168.954944 Angs**3

  Density of cell =      6.155559 g/cm**3

  Non-primitive cell volume =           168.954944 Angs**3


  Final internal derivatives :

--------------------------------------------------------------------------------
   No.  Atomic          x             y             z           Radius
        Label          (eV)          (eV)          (eV)        (eV/Angs)
--------------------------------------------------------------------------------
      1 Sb    c       0.000000      0.000000      0.000000      0.000000
      2 Sb    c       0.000000      0.000000      0.000000      0.000000
      3 Te1   c       0.000000      0.000000      0.000000      0.000000
      4 Te2   c       0.000000      0.000000      0.000000      0.000000
      5 Te2   c       0.000000      0.000000      0.000000      0.000000
--------------------------------------------------------------------------------
  Maximum abs         0.000000      0.000000      0.000000      0.000000
--------------------------------------------------------------------------------


  Born effective charge tensors : 

-------------------------------------------------------------------------------
  Atom             x           y             z
-------------------------------------------------------------------------------
   1 Sb    x       0.6200      0.0000      0.0000
           y       0.0000      0.6200      0.0000
           z       0.0000      0.0000      0.6200
-------------------------------------------------------------------------------
   2 Sb    x       0.6200      0.0000      0.0000
           y       0.0000      0.6200      0.0000
           z       0.0000      0.0000      0.6200
-------------------------------------------------------------------------------
   3 Te1   x      -0.5000      0.0000      0.0000
           y       0.0000     -0.5000      0.0000
           z       0.0000      0.0000     -0.5000
-------------------------------------------------------------------------------
   4 Te2   x      -0.3700      0.0000      0.0000
           y       0.0000     -0.3700      0.0000
           z       0.0000      0.0000     -0.3700
-------------------------------------------------------------------------------
   5 Te2   x      -0.3700      0.0000      0.0000
           y       0.0000     -0.3700      0.0000
           z       0.0000      0.0000     -0.3700
-------------------------------------------------------------------------------




  Elastic Constant Matrix: (Units=GPa)

-------------------------------------------------------------------------------
  Indices      1         2         3         4         5         6    
-------------------------------------------------------------------------------
       1      9.6623    5.2698    2.1554    2.8557    1.3202    2.2236
       2      5.2698   -0.2380    8.6543   -3.8913   -6.3430   -0.0918
       3      2.1554    8.6543    2.7787    1.1253    5.4576   -1.3994
       4      2.8557   -3.8913    1.1253   -6.9241    0.2417   -5.3686
       5      1.3202   -6.3430    5.4576    0.2417   -5.8019    3.0566
       6      2.2236   -0.0918   -1.3994   -5.3686    3.0566   -2.4684
-------------------------------------------------------------------------------


  Elastic Compliance Matrix: (Units=1/GPa)

-------------------------------------------------------------------------------
  Indices      1         2         3         4         5         6    
-------------------------------------------------------------------------------
       1    0.110970 -0.015653 -0.049158  0.061443 -0.011697 -0.019701
       2   -0.015653  0.116941 -0.020162 -0.093804 -0.145258  0.017130
       3   -0.049158 -0.020162  0.151451  0.030518  0.148014 -0.012487
       4    0.061443 -0.093804  0.030518  0.148520  0.009001 -0.270343
       5   -0.011697 -0.145258  0.148014  0.009001  0.190322  0.127045
       6   -0.019701  0.017130 -0.012487 -0.270343  0.127045  0.328876
-------------------------------------------------------------------------------

 Mechanical properties :

-------------------------------------------------------------------------------
  Convention :                    Reuss         Voigt         Hill
-------------------------------------------------------------------------------
  Bulk  Modulus (GPa)     =       4.77520       4.92914       4.85217
  Shear Modulus (GPa)     =       3.88551      -3.29730       0.29410
-------------------------------------------------------------------------------
  Velocity S-wave (km/s)  =       2.51241      -2.31444       0.69122
  Velocity P-wave (km/s)  =       4.02167       0.93030       2.91884
-------------------------------------------------------------------------------
  Compressibility (1/GPa) =    0.20941542
-------------------------------------------------------------------------------
  Stress axis :                     x             y             z
-------------------------------------------------------------------------------
  Youngs Moduli (GPa)     =       9.01141       8.55131       6.60280
-------------------------------------------------------------------------------
  Poissons Ratio (x)      =                     0.13386       0.32458
  Poissons Ratio (y)      =       0.14106                     0.13313
  Poissons Ratio (z)      =       0.44298       0.17242
-------------------------------------------------------------------------------


  Piezoelectric Strain Matrix: (Units=C/m**2)

-------------------------------------------------------------------------------
  Indices      1         2         3         4         5         6    
-------------------------------------------------------------------------------
       x    -0.00000  -0.00000  -0.00000   0.00000   0.00000   0.00000
       y     0.00000  -0.00000  -0.00000  -0.00000   0.00000  -0.00000
       z     0.00000  -0.00000   0.00000  -0.00000  -0.00000   0.00000
-------------------------------------------------------------------------------


  Piezoelectric Stress Matrix: (Units=10**-11 C/N)

-------------------------------------------------------------------------------
  Indices      1         2         3         4         5         6    
-------------------------------------------------------------------------------
       x    -0.00000  -0.00001  -0.00001  -0.00000  -0.00000  -0.00000
       y    -0.00000   0.00000  -0.00000   0.00000  -0.00000   0.00001
       z    -0.00000   0.00000  -0.00000   0.00000   0.00001  -0.00000
-------------------------------------------------------------------------------


  Static dielectric constant tensor : 

-------------------------------------------------------------------------------
              x         y         z
-------------------------------------------------------------------------------
       x     2.07385   0.42594   0.25289
       y     0.42594   0.09580   0.05214
       z     0.25289   0.05214   0.03893
--------------------------------------------------------------------------------

  Static refractive indices : 

-------------------------------------------------------------------------------
    1 =    0.08932      2 =    0.08932      3 =    1.48075
-------------------------------------------------------------------------------


  Time to end of optimisation =     266.0766 seconds


  Peak dynamic memory used =       1.37 MB 


  Timing analysis for GULP :

--------------------------------------------------------------------------------
  Task / Subroutine                                          Time (Seconds)
--------------------------------------------------------------------------------
  Calculation of reciprocal space energy and derivatives         19.2653
  Calculation of real space energy and derivatives              237.8148
  Sum of squares for fitting                                      6.5844
  Global summation overhead                                       0.3280
--------------------------------------------------------------------------------
  Total CPU time                                                266.0766
--------------------------------------------------------------------------------


  Dump file written as sb2te3.res                                              



  **** GULP has completed with 105 warnings - beware! ****

  Job Finished at 16:51.34 20th June       2010                               

