********************************************************************************
*                       GENERAL UTILITY LATTICE PROGRAM                        *
*                                 Julian Gale                                  *
*                      Nanochemistry Research Institute                        *
*             Curtin University of Technology, Western Australia               *
********************************************************************************
* Version = 3.4.7 * Last modified =  21st July 2009                            *
********************************************************************************
*  fit          - perform fitting run                                          *
*  optimise     - perform optimisation run after fitting                       *
*  property     - calculate properties for final geometry                      *
*  fbfgs        - use full numerical Hessian in BFGS for fitting               *
********************************************************************************

  Job Started  at 12:13.24 22nd June       2010                               

  Number of CPUs =     1


  Total number of configurations input = 103

********************************************************************************
*  Input for Configuration =   1                                               *
********************************************************************************

  Formula = Sb2Te3                                                      

  Number of irreducible atoms/shells =       5


  Total number atoms/shells =       5

  Dimensionality = 3               :  Bulk   



  Cartesian lattice vectors (Angstroms) :

       -2.504286    0.000000   10.443767
        1.252143   -2.168775   10.443767
        1.252143    2.168775   10.443767

  Cell parameters (Angstroms/Degrees):

  a =      10.7398    alpha =  23.3006
  b =      10.7398    beta  =  23.3006
  c =      10.7398    gamma =  23.3006

  Initial cell volume =         170.167643 Angs**3

  Temperature of configuration =  0.000     K 

  Pressure of configuration =         0.000 GPa 

  Fractional coordinates of asymmetric unit :

--------------------------------------------------------------------------------
   No.  Atomic       x           y          z         Charge      Occupancy
        Label      (Frac)      (Frac)     (Frac)        (e)         (Frac)  
--------------------------------------------------------------------------------
      1 Sb    c    0.396797    0.396797    0.396797      0.1090    1.000000    
      2 Sb    c    0.603203    0.603203    0.603203      0.1090    1.000000    
      3 Te1   c    0.930000    0.930000    0.930000      0.1600    1.000000    
      4 Te2   c    0.784571    0.784571    0.784571     -0.1890    1.000000    
      5 Te2   c    0.215429    0.215429    0.215429     -0.1890    1.000000    
--------------------------------------------------------------------------------



********************************************************************************
*  Input for Configuration =   2                                               *
********************************************************************************

  Formula = Sb2Te3                                                      

  Number of irreducible atoms/shells =       5


  Total number atoms/shells =       5

  Dimensionality = 3               :  Bulk   



  Cartesian lattice vectors (Angstroms) :

       -2.504286    0.000000   10.443767
        1.252143   -2.168775   10.443767
        1.252143    2.168775   10.443767

  Cell parameters (Angstroms/Degrees):

  a =      10.7398    alpha =  23.3006
  b =      10.7398    beta  =  23.3006
  c =      10.7398    gamma =  23.3006

  Initial cell volume =         170.167643 Angs**3

  Temperature of configuration =  0.000     K 

  Pressure of configuration =         0.000 GPa 

  Fractional coordinates of asymmetric unit :

--------------------------------------------------------------------------------
   No.  Atomic       x           y          z         Charge      Occupancy
        Label      (Frac)      (Frac)     (Frac)        (e)         (Frac)  
--------------------------------------------------------------------------------
      1 Sb    c    0.396797    0.396797    0.396797      0.1090    1.000000    
      2 Sb    c    0.603203    0.603203    0.603203      0.1090    1.000000    
      3 Te1   c    0.940000    0.940000    0.940000      0.1600    1.000000    
      4 Te2   c    0.784571    0.784571    0.784571     -0.1890    1.000000    
      5 Te2   c    0.215429    0.215429    0.215429     -0.1890    1.000000    
--------------------------------------------------------------------------------



********************************************************************************
*  Input for Configuration =   3                                               *
********************************************************************************

  Formula = Sb2Te3                                                      

  Number of irreducible atoms/shells =       5


  Total number atoms/shells =       5

  Dimensionality = 3               :  Bulk   



  Cartesian lattice vectors (Angstroms) :

       -2.504286    0.000000   10.443767
        1.252143   -2.168775   10.443767
        1.252143    2.168775   10.443767

  Cell parameters (Angstroms/Degrees):

  a =      10.7398    alpha =  23.3006
  b =      10.7398    beta  =  23.3006
  c =      10.7398    gamma =  23.3006

  Initial cell volume =         170.167643 Angs**3

  Temperature of configuration =  0.000     K 

  Pressure of configuration =         0.000 GPa 

  Fractional coordinates of asymmetric unit :

--------------------------------------------------------------------------------
   No.  Atomic       x           y          z         Charge      Occupancy
        Label      (Frac)      (Frac)     (Frac)        (e)         (Frac)  
--------------------------------------------------------------------------------
      1 Sb    c    0.396797    0.396797    0.396797      0.1090    1.000000    
      2 Sb    c    0.603203    0.603203    0.603203      0.1090    1.000000    
      3 Te1   c    0.950000    0.950000    0.950000      0.1600    1.000000    
      4 Te2   c    0.784571    0.784571    0.784571     -0.1890    1.000000    
      5 Te2   c    0.215429    0.215429    0.215429     -0.1890    1.000000    
--------------------------------------------------------------------------------



********************************************************************************
*  Input for Configuration =   4                                               *
********************************************************************************

  Formula = Sb2Te3                                                      

  Number of irreducible atoms/shells =       5


  Total number atoms/shells =       5

  Dimensionality = 3               :  Bulk   



  Cartesian lattice vectors (Angstroms) :

       -2.504286    0.000000   10.443767
        1.252143   -2.168775   10.443767
        1.252143    2.168775   10.443767

  Cell parameters (Angstroms/Degrees):

  a =      10.7398    alpha =  23.3006
  b =      10.7398    beta  =  23.3006
  c =      10.7398    gamma =  23.3006

  Initial cell volume =         170.167643 Angs**3

  Temperature of configuration =  0.000     K 

  Pressure of configuration =         0.000 GPa 

  Fractional coordinates of asymmetric unit :

--------------------------------------------------------------------------------
   No.  Atomic       x           y          z         Charge      Occupancy
        Label      (Frac)      (Frac)     (Frac)        (e)         (Frac)  
--------------------------------------------------------------------------------
      1 Sb    c    0.396797    0.396797    0.396797      0.1090    1.000000    
      2 Sb    c    0.603203    0.603203    0.603203      0.1090    1.000000    
      3 Te1   c    0.960000    0.960000    0.960000      0.1600    1.000000    
      4 Te2   c    0.784571    0.784571    0.784571     -0.1890    1.000000    
      5 Te2   c    0.215429    0.215429    0.215429     -0.1890    1.000000    
--------------------------------------------------------------------------------



********************************************************************************
*  Input for Configuration =   5                                               *
********************************************************************************

  Formula = Sb2Te3                                                      

  Number of irreducible atoms/shells =       5


  Total number atoms/shells =       5

  Dimensionality = 3               :  Bulk   



  Cartesian lattice vectors (Angstroms) :

       -2.504286    0.000000   10.443767
        1.252143   -2.168775   10.443767
        1.252143    2.168775   10.443767

  Cell parameters (Angstroms/Degrees):

  a =      10.7398    alpha =  23.3006
  b =      10.7398    beta  =  23.3006
  c =      10.7398    gamma =  23.3006

  Initial cell volume =         170.167643 Angs**3

  Temperature of configuration =  0.000     K 

  Pressure of configuration =         0.000 GPa 

  Fractional coordinates of asymmetric unit :

--------------------------------------------------------------------------------
   No.  Atomic       x           y          z         Charge      Occupancy
        Label      (Frac)      (Frac)     (Frac)        (e)         (Frac)  
--------------------------------------------------------------------------------
      1 Sb    c    0.396797    0.396797    0.396797      0.1090    1.000000    
      2 Sb    c    0.603203    0.603203    0.603203      0.1090    1.000000    
      3 Te1   c    0.970000    0.970000    0.970000      0.1600    1.000000    
      4 Te2   c    0.784571    0.784571    0.784571     -0.1890    1.000000    
      5 Te2   c    0.215429    0.215429    0.215429     -0.1890    1.000000    
--------------------------------------------------------------------------------



********************************************************************************
*  Input for Configuration =   6                                               *
********************************************************************************

  Formula = Sb2Te3                                                      

  Number of irreducible atoms/shells =       5


  Total number atoms/shells =       5

  Dimensionality = 3               :  Bulk   



  Cartesian lattice vectors (Angstroms) :

       -2.504286    0.000000   10.443767
        1.252143   -2.168775   10.443767
        1.252143    2.168775   10.443767

  Cell parameters (Angstroms/Degrees):

  a =      10.7398    alpha =  23.3006
  b =      10.7398    beta  =  23.3006
  c =      10.7398    gamma =  23.3006

  Initial cell volume =         170.167643 Angs**3

  Temperature of configuration =  0.000     K 

  Pressure of configuration =         0.000 GPa 

  Fractional coordinates of asymmetric unit :

--------------------------------------------------------------------------------
   No.  Atomic       x           y          z         Charge      Occupancy
        Label      (Frac)      (Frac)     (Frac)        (e)         (Frac)  
--------------------------------------------------------------------------------
      1 Sb    c    0.396797    0.396797    0.396797      0.1090    1.000000    
      2 Sb    c    0.603203    0.603203    0.603203      0.1090    1.000000    
      3 Te1   c    0.980000    0.980000    0.980000      0.1600    1.000000    
      4 Te2   c    0.784571    0.784571    0.784571     -0.1890    1.000000    
      5 Te2   c    0.215429    0.215429    0.215429     -0.1890    1.000000    
--------------------------------------------------------------------------------



********************************************************************************
*  Input for Configuration =   7                                               *
********************************************************************************

  Formula = Sb2Te3                                                      

  Number of irreducible atoms/shells =       5


  Total number atoms/shells =       5

  Dimensionality = 3               :  Bulk   



  Cartesian lattice vectors (Angstroms) :

       -2.504286    0.000000   10.443767
        1.252143   -2.168775   10.443767
        1.252143    2.168775   10.443767

  Cell parameters (Angstroms/Degrees):

  a =      10.7398    alpha =  23.3006
  b =      10.7398    beta  =  23.3006
  c =      10.7398    gamma =  23.3006

  Initial cell volume =         170.167643 Angs**3

  Temperature of configuration =  0.000     K 

  Pressure of configuration =         0.000 GPa 

  Fractional coordinates of asymmetric unit :

--------------------------------------------------------------------------------
   No.  Atomic       x           y          z         Charge      Occupancy
        Label      (Frac)      (Frac)     (Frac)        (e)         (Frac)  
--------------------------------------------------------------------------------
      1 Sb    c    0.396797    0.396797    0.396797      0.1090    1.000000    
      2 Sb    c    0.603203    0.603203    0.603203      0.1090    1.000000    
      3 Te1   c    0.990000    0.990000    0.990000      0.1600    1.000000    
      4 Te2   c    0.784571    0.784571    0.784571     -0.1890    1.000000    
      5 Te2   c    0.215429    0.215429    0.215429     -0.1890    1.000000    
--------------------------------------------------------------------------------



********************************************************************************
*  Input for Configuration =   8                                               *
********************************************************************************

  Formula = Sb2Te3                                                      

  Number of irreducible atoms/shells =       5


  Total number atoms/shells =       5

  Dimensionality = 3               :  Bulk   



  Cartesian lattice vectors (Angstroms) :

       -2.504286    0.000000   10.443767
        1.252143   -2.168775   10.443767
        1.252143    2.168775   10.443767

  Cell parameters (Angstroms/Degrees):

  a =      10.7398    alpha =  23.3006
  b =      10.7398    beta  =  23.3006
  c =      10.7398    gamma =  23.3006

  Initial cell volume =         170.167643 Angs**3

  Temperature of configuration =  0.000     K 

  Pressure of configuration =         0.000 GPa 

  Fractional coordinates of asymmetric unit :

--------------------------------------------------------------------------------
   No.  Atomic       x           y          z         Charge      Occupancy
        Label      (Frac)      (Frac)     (Frac)        (e)         (Frac)  
--------------------------------------------------------------------------------
      1 Sb    c    0.396797    0.396797    0.396797      0.1090    1.000000    
      2 Sb    c    0.603203    0.603203    0.603203      0.1090    1.000000    
      3 Te1   c    0.000000    0.000000    0.000000      0.1600    1.000000    
      4 Te2   c    0.784571    0.784571    0.784571     -0.1890    1.000000    
      5 Te2   c    0.215429    0.215429    0.215429     -0.1890    1.000000    
--------------------------------------------------------------------------------



********************************************************************************
*  Input for Configuration =   9                                               *
********************************************************************************

  Formula = Sb2Te3                                                      

  Number of irreducible atoms/shells =       5


  Total number atoms/shells =       5

  Dimensionality = 3               :  Bulk   



  Cartesian lattice vectors (Angstroms) :

       -2.504286    0.000000   10.443767
        1.252143   -2.168775   10.443767
        1.252143    2.168775   10.443767

  Cell parameters (Angstroms/Degrees):

  a =      10.7398    alpha =  23.3006
  b =      10.7398    beta  =  23.3006
  c =      10.7398    gamma =  23.3006

  Initial cell volume =         170.167643 Angs**3

  Temperature of configuration =  0.000     K 

  Pressure of configuration =         0.000 GPa 

  Fractional coordinates of asymmetric unit :

--------------------------------------------------------------------------------
   No.  Atomic       x           y          z         Charge      Occupancy
        Label      (Frac)      (Frac)     (Frac)        (e)         (Frac)  
--------------------------------------------------------------------------------
      1 Sb    c    0.396797    0.396797    0.396797      0.1090    1.000000    
      2 Sb    c    0.603203    0.603203    0.603203      0.1090    1.000000    
      3 Te1   c    0.010000    0.010000    0.010000      0.1600    1.000000    
      4 Te2   c    0.784571    0.784571    0.784571     -0.1890    1.000000    
      5 Te2   c    0.215429    0.215429    0.215429     -0.1890    1.000000    
--------------------------------------------------------------------------------



********************************************************************************
*  Input for Configuration =  10                                               *
********************************************************************************

  Formula = Sb2Te3                                                      

  Number of irreducible atoms/shells =       5


  Total number atoms/shells =       5

  Dimensionality = 3               :  Bulk   



  Cartesian lattice vectors (Angstroms) :

       -2.504286    0.000000   10.443767
        1.252143   -2.168775   10.443767
        1.252143    2.168775   10.443767

  Cell parameters (Angstroms/Degrees):

  a =      10.7398    alpha =  23.3006
  b =      10.7398    beta  =  23.3006
  c =      10.7398    gamma =  23.3006

  Initial cell volume =         170.167643 Angs**3

  Temperature of configuration =  0.000     K 

  Pressure of configuration =         0.000 GPa 

  Fractional coordinates of asymmetric unit :

--------------------------------------------------------------------------------
   No.  Atomic       x           y          z         Charge      Occupancy
        Label      (Frac)      (Frac)     (Frac)        (e)         (Frac)  
--------------------------------------------------------------------------------
      1 Sb    c    0.396797    0.396797    0.396797      0.1090    1.000000    
      2 Sb    c    0.603203    0.603203    0.603203      0.1090    1.000000    
      3 Te1   c    0.020000    0.020000    0.020000      0.1600    1.000000    
      4 Te2   c    0.784571    0.784571    0.784571     -0.1890    1.000000    
      5 Te2   c    0.215429    0.215429    0.215429     -0.1890    1.000000    
--------------------------------------------------------------------------------



********************************************************************************
*  Input for Configuration =  11                                               *
********************************************************************************

  Formula = Sb2Te3                                                      

  Number of irreducible atoms/shells =       5


  Total number atoms/shells =       5

  Dimensionality = 3               :  Bulk   



  Cartesian lattice vectors (Angstroms) :

       -2.504286    0.000000   10.443767
        1.252143   -2.168775   10.443767
        1.252143    2.168775   10.443767

  Cell parameters (Angstroms/Degrees):

  a =      10.7398    alpha =  23.3006
  b =      10.7398    beta  =  23.3006
  c =      10.7398    gamma =  23.3006

  Initial cell volume =         170.167643 Angs**3

  Temperature of configuration =  0.000     K 

  Pressure of configuration =         0.000 GPa 

  Fractional coordinates of asymmetric unit :

--------------------------------------------------------------------------------
   No.  Atomic       x           y          z         Charge      Occupancy
        Label      (Frac)      (Frac)     (Frac)        (e)         (Frac)  
--------------------------------------------------------------------------------
      1 Sb    c    0.396797    0.396797    0.396797      0.1090    1.000000    
      2 Sb    c    0.603203    0.603203    0.603203      0.1090    1.000000    
      3 Te1   c    0.030000    0.030000    0.030000      0.1600    1.000000    
      4 Te2   c    0.784571    0.784571    0.784571     -0.1890    1.000000    
      5 Te2   c    0.215429    0.215429    0.215429     -0.1890    1.000000    
--------------------------------------------------------------------------------



********************************************************************************
*  Input for Configuration =  12                                               *
********************************************************************************

  Formula = Sb2Te3                                                      

  Number of irreducible atoms/shells =       5


  Total number atoms/shells =       5

  Dimensionality = 3               :  Bulk   



  Cartesian lattice vectors (Angstroms) :

       -2.504286    0.000000   10.443767
        1.252143   -2.168775   10.443767
        1.252143    2.168775   10.443767

  Cell parameters (Angstroms/Degrees):

  a =      10.7398    alpha =  23.3006
  b =      10.7398    beta  =  23.3006
  c =      10.7398    gamma =  23.3006

  Initial cell volume =         170.167643 Angs**3

  Temperature of configuration =  0.000     K 

  Pressure of configuration =         0.000 GPa 

  Fractional coordinates of asymmetric unit :

--------------------------------------------------------------------------------
   No.  Atomic       x           y          z         Charge      Occupancy
        Label      (Frac)      (Frac)     (Frac)        (e)         (Frac)  
--------------------------------------------------------------------------------
      1 Sb    c    0.396797    0.396797    0.396797      0.1090    1.000000    
      2 Sb    c    0.603203    0.603203    0.603203      0.1090    1.000000    
      3 Te1   c    0.040000    0.040000    0.040000      0.1600    1.000000    
      4 Te2   c    0.784571    0.784571    0.784571     -0.1890    1.000000    
      5 Te2   c    0.215429    0.215429    0.215429     -0.1890    1.000000    
--------------------------------------------------------------------------------



********************************************************************************
*  Input for Configuration =  13                                               *
********************************************************************************

  Formula = Sb2Te3                                                      

  Number of irreducible atoms/shells =       5


  Total number atoms/shells =       5

  Dimensionality = 3               :  Bulk   



  Cartesian lattice vectors (Angstroms) :

       -2.504286    0.000000   10.443767
        1.252143   -2.168775   10.443767
        1.252143    2.168775   10.443767

  Cell parameters (Angstroms/Degrees):

  a =      10.7398    alpha =  23.3006
  b =      10.7398    beta  =  23.3006
  c =      10.7398    gamma =  23.3006

  Initial cell volume =         170.167643 Angs**3

  Temperature of configuration =  0.000     K 

  Pressure of configuration =         0.000 GPa 

  Fractional coordinates of asymmetric unit :

--------------------------------------------------------------------------------
   No.  Atomic       x           y          z         Charge      Occupancy
        Label      (Frac)      (Frac)     (Frac)        (e)         (Frac)  
--------------------------------------------------------------------------------
      1 Sb    c    0.396797    0.396797    0.396797      0.1090    1.000000    
      2 Sb    c    0.603203    0.603203    0.603203      0.1090    1.000000    
      3 Te1   c    0.050000    0.050000    0.050000      0.1600    1.000000    
      4 Te2   c    0.784571    0.784571    0.784571     -0.1890    1.000000    
      5 Te2   c    0.215429    0.215429    0.215429     -0.1890    1.000000    
--------------------------------------------------------------------------------



********************************************************************************
*  Input for Configuration =  14                                               *
********************************************************************************

  Formula = Sb2Te3                                                      

  Number of irreducible atoms/shells =       5


  Total number atoms/shells =       5

  Dimensionality = 3               :  Bulk   



  Cartesian lattice vectors (Angstroms) :

       -2.504286    0.000000   10.443767
        1.252143   -2.168775   10.443767
        1.252143    2.168775   10.443767

  Cell parameters (Angstroms/Degrees):

  a =      10.7398    alpha =  23.3006
  b =      10.7398    beta  =  23.3006
  c =      10.7398    gamma =  23.3006

  Initial cell volume =         170.167643 Angs**3

  Temperature of configuration =  0.000     K 

  Pressure of configuration =         0.000 GPa 

  Fractional coordinates of asymmetric unit :

--------------------------------------------------------------------------------
   No.  Atomic       x           y          z         Charge      Occupancy
        Label      (Frac)      (Frac)     (Frac)        (e)         (Frac)  
--------------------------------------------------------------------------------
      1 Sb    c    0.396797    0.396797    0.396797      0.1090    1.000000    
      2 Sb    c    0.603203    0.603203    0.603203      0.1090    1.000000    
      3 Te1   c    0.060000    0.060000    0.060000      0.1600    1.000000    
      4 Te2   c    0.784571    0.784571    0.784571     -0.1890    1.000000    
      5 Te2   c    0.215429    0.215429    0.215429     -0.1890    1.000000    
--------------------------------------------------------------------------------



********************************************************************************
*  Input for Configuration =  15                                               *
********************************************************************************

  Formula = Sb2Te3                                                      

  Number of irreducible atoms/shells =       5


  Total number atoms/shells =       5

  Dimensionality = 3               :  Bulk   



  Cartesian lattice vectors (Angstroms) :

       -2.504286    0.000000   10.443767
        1.252143   -2.168775   10.443767
        1.252143    2.168775   10.443767

  Cell parameters (Angstroms/Degrees):

  a =      10.7398    alpha =  23.3006
  b =      10.7398    beta  =  23.3006
  c =      10.7398    gamma =  23.3006

  Initial cell volume =         170.167643 Angs**3

  Temperature of configuration =  0.000     K 

  Pressure of configuration =         0.000 GPa 

  Fractional coordinates of asymmetric unit :

--------------------------------------------------------------------------------
   No.  Atomic       x           y          z         Charge      Occupancy
        Label      (Frac)      (Frac)     (Frac)        (e)         (Frac)  
--------------------------------------------------------------------------------
      1 Sb    c    0.396797    0.396797    0.396797      0.1090    1.000000    
      2 Sb    c    0.603203    0.603203    0.603203      0.1090    1.000000    
      3 Te1   c    0.070000    0.070000    0.070000      0.1600    1.000000    
      4 Te2   c    0.784571    0.784571    0.784571     -0.1890    1.000000    
      5 Te2   c    0.215429    0.215429    0.215429     -0.1890    1.000000    
--------------------------------------------------------------------------------



********************************************************************************
*  Input for Configuration =  16                                               *
********************************************************************************

  Formula = Sb2Te3                                                      

  Number of irreducible atoms/shells =       5


  Total number atoms/shells =       5

  Dimensionality = 3               :  Bulk   



  Cartesian lattice vectors (Angstroms) :

       -2.504286    0.000000   10.443767
        1.252143   -2.168775   10.443767
        1.252143    2.168775   10.443767

  Cell parameters (Angstroms/Degrees):

  a =      10.7398    alpha =  23.3006
  b =      10.7398    beta  =  23.3006
  c =      10.7398    gamma =  23.3006

  Initial cell volume =         170.167643 Angs**3

  Temperature of configuration =  0.000     K 

  Pressure of configuration =         0.000 GPa 

  Fractional coordinates of asymmetric unit :

--------------------------------------------------------------------------------
   No.  Atomic       x           y          z         Charge      Occupancy
        Label      (Frac)      (Frac)     (Frac)        (e)         (Frac)  
--------------------------------------------------------------------------------
      1 Sb    c    0.396797    0.396797    0.396797      0.1090    1.000000    
      2 Sb    c    0.603203    0.603203    0.603203      0.1090    1.000000    
      3 Te1   c    0.000000    0.000000    0.000000      0.1600    1.000000    
      4 Te2   c    0.729651    0.729651    0.729651     -0.1890    1.000000    
      5 Te2   c    0.215429    0.215429    0.215429     -0.1890    1.000000    
--------------------------------------------------------------------------------



********************************************************************************
*  Input for Configuration =  17                                               *
********************************************************************************

  Formula = Sb2Te3                                                      

  Number of irreducible atoms/shells =       5


  Total number atoms/shells =       5

  Dimensionality = 3               :  Bulk   



  Cartesian lattice vectors (Angstroms) :

       -2.504286    0.000000   10.443767
        1.252143   -2.168775   10.443767
        1.252143    2.168775   10.443767

  Cell parameters (Angstroms/Degrees):

  a =      10.7398    alpha =  23.3006
  b =      10.7398    beta  =  23.3006
  c =      10.7398    gamma =  23.3006

  Initial cell volume =         170.167643 Angs**3

  Temperature of configuration =  0.000     K 

  Pressure of configuration =         0.000 GPa 

  Fractional coordinates of asymmetric unit :

--------------------------------------------------------------------------------
   No.  Atomic       x           y          z         Charge      Occupancy
        Label      (Frac)      (Frac)     (Frac)        (e)         (Frac)  
--------------------------------------------------------------------------------
      1 Sb    c    0.396797    0.396797    0.396797      0.1090    1.000000    
      2 Sb    c    0.603203    0.603203    0.603203      0.1090    1.000000    
      3 Te1   c    0.000000    0.000000    0.000000      0.1600    1.000000    
      4 Te2   c    0.737497    0.737497    0.737497     -0.1890    1.000000    
      5 Te2   c    0.215429    0.215429    0.215429     -0.1890    1.000000    
--------------------------------------------------------------------------------



********************************************************************************
*  Input for Configuration =  18                                               *
********************************************************************************

  Formula = Sb2Te3                                                      

  Number of irreducible atoms/shells =       5


  Total number atoms/shells =       5

  Dimensionality = 3               :  Bulk   



  Cartesian lattice vectors (Angstroms) :

       -2.504286    0.000000   10.443767
        1.252143   -2.168775   10.443767
        1.252143    2.168775   10.443767

  Cell parameters (Angstroms/Degrees):

  a =      10.7398    alpha =  23.3006
  b =      10.7398    beta  =  23.3006
  c =      10.7398    gamma =  23.3006

  Initial cell volume =         170.167643 Angs**3

  Temperature of configuration =  0.000     K 

  Pressure of configuration =         0.000 GPa 

  Fractional coordinates of asymmetric unit :

--------------------------------------------------------------------------------
   No.  Atomic       x           y          z         Charge      Occupancy
        Label      (Frac)      (Frac)     (Frac)        (e)         (Frac)  
--------------------------------------------------------------------------------
      1 Sb    c    0.396797    0.396797    0.396797      0.1090    1.000000    
      2 Sb    c    0.603203    0.603203    0.603203      0.1090    1.000000    
      3 Te1   c    0.000000    0.000000    0.000000      0.1600    1.000000    
      4 Te2   c    0.745343    0.745343    0.745343     -0.1890    1.000000    
      5 Te2   c    0.215429    0.215429    0.215429     -0.1890    1.000000    
--------------------------------------------------------------------------------



********************************************************************************
*  Input for Configuration =  19                                               *
********************************************************************************

  Formula = Sb2Te3                                                      

  Number of irreducible atoms/shells =       5


  Total number atoms/shells =       5

  Dimensionality = 3               :  Bulk   



  Cartesian lattice vectors (Angstroms) :

       -2.504286    0.000000   10.443767
        1.252143   -2.168775   10.443767
        1.252143    2.168775   10.443767

  Cell parameters (Angstroms/Degrees):

  a =      10.7398    alpha =  23.3006
  b =      10.7398    beta  =  23.3006
  c =      10.7398    gamma =  23.3006

  Initial cell volume =         170.167643 Angs**3

  Temperature of configuration =  0.000     K 

  Pressure of configuration =         0.000 GPa 

  Fractional coordinates of asymmetric unit :

--------------------------------------------------------------------------------
   No.  Atomic       x           y          z         Charge      Occupancy
        Label      (Frac)      (Frac)     (Frac)        (e)         (Frac)  
--------------------------------------------------------------------------------
      1 Sb    c    0.396797    0.396797    0.396797      0.1090    1.000000    
      2 Sb    c    0.603203    0.603203    0.603203      0.1090    1.000000    
      3 Te1   c    0.000000    0.000000    0.000000      0.1600    1.000000    
      4 Te2   c    0.753188    0.753188    0.753188     -0.1890    1.000000    
      5 Te2   c    0.215429    0.215429    0.215429     -0.1890    1.000000    
--------------------------------------------------------------------------------



********************************************************************************
*  Input for Configuration =  20                                               *
********************************************************************************

  Formula = Sb2Te3                                                      

  Number of irreducible atoms/shells =       5


  Total number atoms/shells =       5

  Dimensionality = 3               :  Bulk   



  Cartesian lattice vectors (Angstroms) :

       -2.504286    0.000000   10.443767
        1.252143   -2.168775   10.443767
        1.252143    2.168775   10.443767

  Cell parameters (Angstroms/Degrees):

  a =      10.7398    alpha =  23.3006
  b =      10.7398    beta  =  23.3006
  c =      10.7398    gamma =  23.3006

  Initial cell volume =         170.167643 Angs**3

  Temperature of configuration =  0.000     K 

  Pressure of configuration =         0.000 GPa 

  Fractional coordinates of asymmetric unit :

--------------------------------------------------------------------------------
   No.  Atomic       x           y          z         Charge      Occupancy
        Label      (Frac)      (Frac)     (Frac)        (e)         (Frac)  
--------------------------------------------------------------------------------
      1 Sb    c    0.396797    0.396797    0.396797      0.1090    1.000000    
      2 Sb    c    0.603203    0.603203    0.603203      0.1090    1.000000    
      3 Te1   c    0.000000    0.000000    0.000000      0.1600    1.000000    
      4 Te2   c    0.761034    0.761034    0.761034     -0.1890    1.000000    
      5 Te2   c    0.215429    0.215429    0.215429     -0.1890    1.000000    
--------------------------------------------------------------------------------



********************************************************************************
*  Input for Configuration =  21                                               *
********************************************************************************

  Formula = Sb2Te3                                                      

  Number of irreducible atoms/shells =       5


  Total number atoms/shells =       5

  Dimensionality = 3               :  Bulk   



  Cartesian lattice vectors (Angstroms) :

       -2.504286    0.000000   10.443767
        1.252143   -2.168775   10.443767
        1.252143    2.168775   10.443767

  Cell parameters (Angstroms/Degrees):

  a =      10.7398    alpha =  23.3006
  b =      10.7398    beta  =  23.3006
  c =      10.7398    gamma =  23.3006

  Initial cell volume =         170.167643 Angs**3

  Temperature of configuration =  0.000     K 

  Pressure of configuration =         0.000 GPa 

  Fractional coordinates of asymmetric unit :

--------------------------------------------------------------------------------
   No.  Atomic       x           y          z         Charge      Occupancy
        Label      (Frac)      (Frac)     (Frac)        (e)         (Frac)  
--------------------------------------------------------------------------------
      1 Sb    c    0.396797    0.396797    0.396797      0.1090    1.000000    
      2 Sb    c    0.603203    0.603203    0.603203      0.1090    1.000000    
      3 Te1   c    0.000000    0.000000    0.000000      0.1600    1.000000    
      4 Te2   c    0.768880    0.768880    0.768880     -0.1890    1.000000    
      5 Te2   c    0.215429    0.215429    0.215429     -0.1890    1.000000    
--------------------------------------------------------------------------------



********************************************************************************
*  Input for Configuration =  22                                               *
********************************************************************************

  Formula = Sb2Te3                                                      

  Number of irreducible atoms/shells =       5


  Total number atoms/shells =       5

  Dimensionality = 3               :  Bulk   



  Cartesian lattice vectors (Angstroms) :

       -2.504286    0.000000   10.443767
        1.252143   -2.168775   10.443767
        1.252143    2.168775   10.443767

  Cell parameters (Angstroms/Degrees):

  a =      10.7398    alpha =  23.3006
  b =      10.7398    beta  =  23.3006
  c =      10.7398    gamma =  23.3006

  Initial cell volume =         170.167643 Angs**3

  Temperature of configuration =  0.000     K 

  Pressure of configuration =         0.000 GPa 

  Fractional coordinates of asymmetric unit :

--------------------------------------------------------------------------------
   No.  Atomic       x           y          z         Charge      Occupancy
        Label      (Frac)      (Frac)     (Frac)        (e)         (Frac)  
--------------------------------------------------------------------------------
      1 Sb    c    0.396797    0.396797    0.396797      0.1090    1.000000    
      2 Sb    c    0.603203    0.603203    0.603203      0.1090    1.000000    
      3 Te1   c    0.000000    0.000000    0.000000      0.1600    1.000000    
      4 Te2   c    0.776726    0.776726    0.776726     -0.1890    1.000000    
      5 Te2   c    0.215429    0.215429    0.215429     -0.1890    1.000000    
--------------------------------------------------------------------------------



********************************************************************************
*  Input for Configuration =  23                                               *
********************************************************************************

  Formula = Sb2Te3                                                      

  Number of irreducible atoms/shells =       5


  Total number atoms/shells =       5

  Dimensionality = 3               :  Bulk   



  Cartesian lattice vectors (Angstroms) :

       -2.504286    0.000000   10.443767
        1.252143   -2.168775   10.443767
        1.252143    2.168775   10.443767

  Cell parameters (Angstroms/Degrees):

  a =      10.7398    alpha =  23.3006
  b =      10.7398    beta  =  23.3006
  c =      10.7398    gamma =  23.3006

  Initial cell volume =         170.167643 Angs**3

  Temperature of configuration =  0.000     K 

  Pressure of configuration =         0.000 GPa 

  Fractional coordinates of asymmetric unit :

--------------------------------------------------------------------------------
   No.  Atomic       x           y          z         Charge      Occupancy
        Label      (Frac)      (Frac)     (Frac)        (e)         (Frac)  
--------------------------------------------------------------------------------
      1 Sb    c    0.396797    0.396797    0.396797      0.1090    1.000000    
      2 Sb    c    0.603203    0.603203    0.603203      0.1090    1.000000    
      3 Te1   c    0.000000    0.000000    0.000000      0.1600    1.000000    
      4 Te2   c    0.784571    0.784571    0.784571     -0.1890    1.000000    
      5 Te2   c    0.215429    0.215429    0.215429     -0.1890    1.000000    
--------------------------------------------------------------------------------



********************************************************************************
*  Input for Configuration =  24                                               *
********************************************************************************

  Formula = Sb2Te3                                                      

  Number of irreducible atoms/shells =       5


  Total number atoms/shells =       5

  Dimensionality = 3               :  Bulk   



  Cartesian lattice vectors (Angstroms) :

       -2.504286    0.000000   10.443767
        1.252143   -2.168775   10.443767
        1.252143    2.168775   10.443767

  Cell parameters (Angstroms/Degrees):

  a =      10.7398    alpha =  23.3006
  b =      10.7398    beta  =  23.3006
  c =      10.7398    gamma =  23.3006

  Initial cell volume =         170.167643 Angs**3

  Temperature of configuration =  0.000     K 

  Pressure of configuration =         0.000 GPa 

  Fractional coordinates of asymmetric unit :

--------------------------------------------------------------------------------
   No.  Atomic       x           y          z         Charge      Occupancy
        Label      (Frac)      (Frac)     (Frac)        (e)         (Frac)  
--------------------------------------------------------------------------------
      1 Sb    c    0.396797    0.396797    0.396797      0.1090    1.000000    
      2 Sb    c    0.603203    0.603203    0.603203      0.1090    1.000000    
      3 Te1   c    0.000000    0.000000    0.000000      0.1600    1.000000    
      4 Te2   c    0.792417    0.792417    0.792417     -0.1890    1.000000    
      5 Te2   c    0.215429    0.215429    0.215429     -0.1890    1.000000    
--------------------------------------------------------------------------------



********************************************************************************
*  Input for Configuration =  25                                               *
********************************************************************************

  Formula = Sb2Te3                                                      

  Number of irreducible atoms/shells =       5


  Total number atoms/shells =       5

  Dimensionality = 3               :  Bulk   



  Cartesian lattice vectors (Angstroms) :

       -2.504286    0.000000   10.443767
        1.252143   -2.168775   10.443767
        1.252143    2.168775   10.443767

  Cell parameters (Angstroms/Degrees):

  a =      10.7398    alpha =  23.3006
  b =      10.7398    beta  =  23.3006
  c =      10.7398    gamma =  23.3006

  Initial cell volume =         170.167643 Angs**3

  Temperature of configuration =  0.000     K 

  Pressure of configuration =         0.000 GPa 

  Fractional coordinates of asymmetric unit :

--------------------------------------------------------------------------------
   No.  Atomic       x           y          z         Charge      Occupancy
        Label      (Frac)      (Frac)     (Frac)        (e)         (Frac)  
--------------------------------------------------------------------------------
      1 Sb    c    0.396797    0.396797    0.396797      0.1090    1.000000    
      2 Sb    c    0.603203    0.603203    0.603203      0.1090    1.000000    
      3 Te1   c    0.000000    0.000000    0.000000      0.1600    1.000000    
      4 Te2   c    0.800263    0.800263    0.800263     -0.1890    1.000000    
      5 Te2   c    0.215429    0.215429    0.215429     -0.1890    1.000000    
--------------------------------------------------------------------------------



********************************************************************************
*  Input for Configuration =  26                                               *
********************************************************************************

  Formula = Sb2Te3                                                      

  Number of irreducible atoms/shells =       5


  Total number atoms/shells =       5

  Dimensionality = 3               :  Bulk   



  Cartesian lattice vectors (Angstroms) :

       -2.504286    0.000000   10.443767
        1.252143   -2.168775   10.443767
        1.252143    2.168775   10.443767

  Cell parameters (Angstroms/Degrees):

  a =      10.7398    alpha =  23.3006
  b =      10.7398    beta  =  23.3006
  c =      10.7398    gamma =  23.3006

  Initial cell volume =         170.167643 Angs**3

  Temperature of configuration =  0.000     K 

  Pressure of configuration =         0.000 GPa 

  Fractional coordinates of asymmetric unit :

--------------------------------------------------------------------------------
   No.  Atomic       x           y          z         Charge      Occupancy
        Label      (Frac)      (Frac)     (Frac)        (e)         (Frac)  
--------------------------------------------------------------------------------
      1 Sb    c    0.396797    0.396797    0.396797      0.1090    1.000000    
      2 Sb    c    0.603203    0.603203    0.603203      0.1090    1.000000    
      3 Te1   c    0.000000    0.000000    0.000000      0.1600    1.000000    
      4 Te2   c    0.808108    0.808108    0.808108     -0.1890    1.000000    
      5 Te2   c    0.215429    0.215429    0.215429     -0.1890    1.000000    
--------------------------------------------------------------------------------



********************************************************************************
*  Input for Configuration =  27                                               *
********************************************************************************

  Formula = Sb2Te3                                                      

  Number of irreducible atoms/shells =       5


  Total number atoms/shells =       5

  Dimensionality = 3               :  Bulk   



  Cartesian lattice vectors (Angstroms) :

       -2.504286    0.000000   10.443767
        1.252143   -2.168775   10.443767
        1.252143    2.168775   10.443767

  Cell parameters (Angstroms/Degrees):

  a =      10.7398    alpha =  23.3006
  b =      10.7398    beta  =  23.3006
  c =      10.7398    gamma =  23.3006

  Initial cell volume =         170.167643 Angs**3

  Temperature of configuration =  0.000     K 

  Pressure of configuration =         0.000 GPa 

  Fractional coordinates of asymmetric unit :

--------------------------------------------------------------------------------
   No.  Atomic       x           y          z         Charge      Occupancy
        Label      (Frac)      (Frac)     (Frac)        (e)         (Frac)  
--------------------------------------------------------------------------------
      1 Sb    c    0.396797    0.396797    0.396797      0.1090    1.000000    
      2 Sb    c    0.603203    0.603203    0.603203      0.1090    1.000000    
      3 Te1   c    0.000000    0.000000    0.000000      0.1600    1.000000    
      4 Te2   c    0.815954    0.815954    0.815954     -0.1890    1.000000    
      5 Te2   c    0.215429    0.215429    0.215429     -0.1890    1.000000    
--------------------------------------------------------------------------------



********************************************************************************
*  Input for Configuration =  28                                               *
********************************************************************************

  Formula = Sb2Te3                                                      

  Number of irreducible atoms/shells =       5


  Total number atoms/shells =       5

  Dimensionality = 3               :  Bulk   



  Cartesian lattice vectors (Angstroms) :

       -2.504286    0.000000   10.443767
        1.252143   -2.168775   10.443767
        1.252143    2.168775   10.443767

  Cell parameters (Angstroms/Degrees):

  a =      10.7398    alpha =  23.3006
  b =      10.7398    beta  =  23.3006
  c =      10.7398    gamma =  23.3006

  Initial cell volume =         170.167643 Angs**3

  Temperature of configuration =  0.000     K 

  Pressure of configuration =         0.000 GPa 

  Fractional coordinates of asymmetric unit :

--------------------------------------------------------------------------------
   No.  Atomic       x           y          z         Charge      Occupancy
        Label      (Frac)      (Frac)     (Frac)        (e)         (Frac)  
--------------------------------------------------------------------------------
      1 Sb    c    0.396797    0.396797    0.396797      0.1090    1.000000    
      2 Sb    c    0.603203    0.603203    0.603203      0.1090    1.000000    
      3 Te1   c    0.000000    0.000000    0.000000      0.1600    1.000000    
      4 Te2   c    0.823800    0.823800    0.823800     -0.1890    1.000000    
      5 Te2   c    0.215429    0.215429    0.215429     -0.1890    1.000000    
--------------------------------------------------------------------------------



********************************************************************************
*  Input for Configuration =  29                                               *
********************************************************************************

  Formula = Sb2Te3                                                      

  Number of irreducible atoms/shells =       5


  Total number atoms/shells =       5

  Dimensionality = 3               :  Bulk   



  Cartesian lattice vectors (Angstroms) :

       -2.504286    0.000000   10.443767
        1.252143   -2.168775   10.443767
        1.252143    2.168775   10.443767

  Cell parameters (Angstroms/Degrees):

  a =      10.7398    alpha =  23.3006
  b =      10.7398    beta  =  23.3006
  c =      10.7398    gamma =  23.3006

  Initial cell volume =         170.167643 Angs**3

  Temperature of configuration =  0.000     K 

  Pressure of configuration =         0.000 GPa 

  Fractional coordinates of asymmetric unit :

--------------------------------------------------------------------------------
   No.  Atomic       x           y          z         Charge      Occupancy
        Label      (Frac)      (Frac)     (Frac)        (e)         (Frac)  
--------------------------------------------------------------------------------
      1 Sb    c    0.396797    0.396797    0.396797      0.1090    1.000000    
      2 Sb    c    0.603203    0.603203    0.603203      0.1090    1.000000    
      3 Te1   c    0.000000    0.000000    0.000000      0.1600    1.000000    
      4 Te2   c    0.831646    0.831646    0.831646     -0.1890    1.000000    
      5 Te2   c    0.215429    0.215429    0.215429     -0.1890    1.000000    
--------------------------------------------------------------------------------



********************************************************************************
*  Input for Configuration =  30                                               *
********************************************************************************

  Formula = Sb2Te3                                                      

  Number of irreducible atoms/shells =       5


  Total number atoms/shells =       5

  Dimensionality = 3               :  Bulk   



  Cartesian lattice vectors (Angstroms) :

       -2.504286    0.000000   10.443767
        1.252143   -2.168775   10.443767
        1.252143    2.168775   10.443767

  Cell parameters (Angstroms/Degrees):

  a =      10.7398    alpha =  23.3006
  b =      10.7398    beta  =  23.3006
  c =      10.7398    gamma =  23.3006

  Initial cell volume =         170.167643 Angs**3

  Temperature of configuration =  0.000     K 

  Pressure of configuration =         0.000 GPa 

  Fractional coordinates of asymmetric unit :

--------------------------------------------------------------------------------
   No.  Atomic       x           y          z         Charge      Occupancy
        Label      (Frac)      (Frac)     (Frac)        (e)         (Frac)  
--------------------------------------------------------------------------------
      1 Sb    c    0.396797    0.396797    0.396797      0.1090    1.000000    
      2 Sb    c    0.603203    0.603203    0.603203      0.1090    1.000000    
      3 Te1   c    0.000000    0.000000    0.000000      0.1600    1.000000    
      4 Te2   c    0.839491    0.839491    0.839491     -0.1890    1.000000    
      5 Te2   c    0.215429    0.215429    0.215429     -0.1890    1.000000    
--------------------------------------------------------------------------------



********************************************************************************
*  Input for Configuration =  31                                               *
********************************************************************************

  Formula = Sb2Te3                                                      

  Number of irreducible atoms/shells =       5


  Total number atoms/shells =       5

  Dimensionality = 3               :  Bulk   



  Cartesian lattice vectors (Angstroms) :

       -2.504286    0.000000   10.443767
        1.252143   -2.168775   10.443767
        1.252143    2.168775   10.443767

  Cell parameters (Angstroms/Degrees):

  a =      10.7398    alpha =  23.3006
  b =      10.7398    beta  =  23.3006
  c =      10.7398    gamma =  23.3006

  Initial cell volume =         170.167643 Angs**3

  Temperature of configuration =  0.000     K 

  Pressure of configuration =         0.000 GPa 

  Fractional coordinates of asymmetric unit :

--------------------------------------------------------------------------------
   No.  Atomic       x           y          z         Charge      Occupancy
        Label      (Frac)      (Frac)     (Frac)        (e)         (Frac)  
--------------------------------------------------------------------------------
      1 Sb    c    0.396797    0.396797    0.396797      0.1090    1.000000    
      2 Sb    c    0.603203    0.603203    0.603203      0.1090    1.000000    
      3 Te1   c    0.000000    0.000000    0.000000      0.1600    1.000000    
      4 Te2   c    0.784571    0.784571    0.784571     -0.1890    1.000000    
      5 Te2   c    0.200349    0.200349    0.200349     -0.1890    1.000000    
--------------------------------------------------------------------------------



********************************************************************************
*  Input for Configuration =  32                                               *
********************************************************************************

  Formula = Sb2Te3                                                      

  Number of irreducible atoms/shells =       5


  Total number atoms/shells =       5

  Dimensionality = 3               :  Bulk   



  Cartesian lattice vectors (Angstroms) :

       -2.504286    0.000000   10.443767
        1.252143   -2.168775   10.443767
        1.252143    2.168775   10.443767

  Cell parameters (Angstroms/Degrees):

  a =      10.7398    alpha =  23.3006
  b =      10.7398    beta  =  23.3006
  c =      10.7398    gamma =  23.3006

  Initial cell volume =         170.167643 Angs**3

  Temperature of configuration =  0.000     K 

  Pressure of configuration =         0.000 GPa 

  Fractional coordinates of asymmetric unit :

--------------------------------------------------------------------------------
   No.  Atomic       x           y          z         Charge      Occupancy
        Label      (Frac)      (Frac)     (Frac)        (e)         (Frac)  
--------------------------------------------------------------------------------
      1 Sb    c    0.396797    0.396797    0.396797      0.1090    1.000000    
      2 Sb    c    0.603203    0.603203    0.603203      0.1090    1.000000    
      3 Te1   c    0.000000    0.000000    0.000000      0.1600    1.000000    
      4 Te2   c    0.784571    0.784571    0.784571     -0.1890    1.000000    
      5 Te2   c    0.202503    0.202503    0.202503     -0.1890    1.000000    
--------------------------------------------------------------------------------



********************************************************************************
*  Input for Configuration =  33                                               *
********************************************************************************

  Formula = Sb2Te3                                                      

  Number of irreducible atoms/shells =       5


  Total number atoms/shells =       5

  Dimensionality = 3               :  Bulk   



  Cartesian lattice vectors (Angstroms) :

       -2.504286    0.000000   10.443767
        1.252143   -2.168775   10.443767
        1.252143    2.168775   10.443767

  Cell parameters (Angstroms/Degrees):

  a =      10.7398    alpha =  23.3006
  b =      10.7398    beta  =  23.3006
  c =      10.7398    gamma =  23.3006

  Initial cell volume =         170.167643 Angs**3

  Temperature of configuration =  0.000     K 

  Pressure of configuration =         0.000 GPa 

  Fractional coordinates of asymmetric unit :

--------------------------------------------------------------------------------
   No.  Atomic       x           y          z         Charge      Occupancy
        Label      (Frac)      (Frac)     (Frac)        (e)         (Frac)  
--------------------------------------------------------------------------------
      1 Sb    c    0.396797    0.396797    0.396797      0.1090    1.000000    
      2 Sb    c    0.603203    0.603203    0.603203      0.1090    1.000000    
      3 Te1   c    0.000000    0.000000    0.000000      0.1600    1.000000    
      4 Te2   c    0.784571    0.784571    0.784571     -0.1890    1.000000    
      5 Te2   c    0.204657    0.204657    0.204657     -0.1890    1.000000    
--------------------------------------------------------------------------------



********************************************************************************
*  Input for Configuration =  34                                               *
********************************************************************************

  Formula = Sb2Te3                                                      

  Number of irreducible atoms/shells =       5


  Total number atoms/shells =       5

  Dimensionality = 3               :  Bulk   



  Cartesian lattice vectors (Angstroms) :

       -2.504286    0.000000   10.443767
        1.252143   -2.168775   10.443767
        1.252143    2.168775   10.443767

  Cell parameters (Angstroms/Degrees):

  a =      10.7398    alpha =  23.3006
  b =      10.7398    beta  =  23.3006
  c =      10.7398    gamma =  23.3006

  Initial cell volume =         170.167643 Angs**3

  Temperature of configuration =  0.000     K 

  Pressure of configuration =         0.000 GPa 

  Fractional coordinates of asymmetric unit :

--------------------------------------------------------------------------------
   No.  Atomic       x           y          z         Charge      Occupancy
        Label      (Frac)      (Frac)     (Frac)        (e)         (Frac)  
--------------------------------------------------------------------------------
      1 Sb    c    0.396797    0.396797    0.396797      0.1090    1.000000    
      2 Sb    c    0.603203    0.603203    0.603203      0.1090    1.000000    
      3 Te1   c    0.000000    0.000000    0.000000      0.1600    1.000000    
      4 Te2   c    0.784571    0.784571    0.784571     -0.1890    1.000000    
      5 Te2   c    0.206812    0.206812    0.206812     -0.1890    1.000000    
--------------------------------------------------------------------------------



********************************************************************************
*  Input for Configuration =  35                                               *
********************************************************************************

  Formula = Sb2Te3                                                      

  Number of irreducible atoms/shells =       5


  Total number atoms/shells =       5

  Dimensionality = 3               :  Bulk   



  Cartesian lattice vectors (Angstroms) :

       -2.504286    0.000000   10.443767
        1.252143   -2.168775   10.443767
        1.252143    2.168775   10.443767

  Cell parameters (Angstroms/Degrees):

  a =      10.7398    alpha =  23.3006
  b =      10.7398    beta  =  23.3006
  c =      10.7398    gamma =  23.3006

  Initial cell volume =         170.167643 Angs**3

  Temperature of configuration =  0.000     K 

  Pressure of configuration =         0.000 GPa 

  Fractional coordinates of asymmetric unit :

--------------------------------------------------------------------------------
   No.  Atomic       x           y          z         Charge      Occupancy
        Label      (Frac)      (Frac)     (Frac)        (e)         (Frac)  
--------------------------------------------------------------------------------
      1 Sb    c    0.396797    0.396797    0.396797      0.1090    1.000000    
      2 Sb    c    0.603203    0.603203    0.603203      0.1090    1.000000    
      3 Te1   c    0.000000    0.000000    0.000000      0.1600    1.000000    
      4 Te2   c    0.784571    0.784571    0.784571     -0.1890    1.000000    
      5 Te2   c    0.208966    0.208966    0.208966     -0.1890    1.000000    
--------------------------------------------------------------------------------



********************************************************************************
*  Input for Configuration =  36                                               *
********************************************************************************

  Formula = Sb2Te3                                                      

  Number of irreducible atoms/shells =       5


  Total number atoms/shells =       5

  Dimensionality = 3               :  Bulk   



  Cartesian lattice vectors (Angstroms) :

       -2.504286    0.000000   10.443767
        1.252143   -2.168775   10.443767
        1.252143    2.168775   10.443767

  Cell parameters (Angstroms/Degrees):

  a =      10.7398    alpha =  23.3006
  b =      10.7398    beta  =  23.3006
  c =      10.7398    gamma =  23.3006

  Initial cell volume =         170.167643 Angs**3

  Temperature of configuration =  0.000     K 

  Pressure of configuration =         0.000 GPa 

  Fractional coordinates of asymmetric unit :

--------------------------------------------------------------------------------
   No.  Atomic       x           y          z         Charge      Occupancy
        Label      (Frac)      (Frac)     (Frac)        (e)         (Frac)  
--------------------------------------------------------------------------------
      1 Sb    c    0.396797    0.396797    0.396797      0.1090    1.000000    
      2 Sb    c    0.603203    0.603203    0.603203      0.1090    1.000000    
      3 Te1   c    0.000000    0.000000    0.000000      0.1600    1.000000    
      4 Te2   c    0.784571    0.784571    0.784571     -0.1890    1.000000    
      5 Te2   c    0.211120    0.211120    0.211120     -0.1890    1.000000    
--------------------------------------------------------------------------------



********************************************************************************
*  Input for Configuration =  37                                               *
********************************************************************************

  Formula = Sb2Te3                                                      

  Number of irreducible atoms/shells =       5


  Total number atoms/shells =       5

  Dimensionality = 3               :  Bulk   



  Cartesian lattice vectors (Angstroms) :

       -2.504286    0.000000   10.443767
        1.252143   -2.168775   10.443767
        1.252143    2.168775   10.443767

  Cell parameters (Angstroms/Degrees):

  a =      10.7398    alpha =  23.3006
  b =      10.7398    beta  =  23.3006
  c =      10.7398    gamma =  23.3006

  Initial cell volume =         170.167643 Angs**3

  Temperature of configuration =  0.000     K 

  Pressure of configuration =         0.000 GPa 

  Fractional coordinates of asymmetric unit :

--------------------------------------------------------------------------------
   No.  Atomic       x           y          z         Charge      Occupancy
        Label      (Frac)      (Frac)     (Frac)        (e)         (Frac)  
--------------------------------------------------------------------------------
      1 Sb    c    0.396797    0.396797    0.396797      0.1090    1.000000    
      2 Sb    c    0.603203    0.603203    0.603203      0.1090    1.000000    
      3 Te1   c    0.000000    0.000000    0.000000      0.1600    1.000000    
      4 Te2   c    0.784571    0.784571    0.784571     -0.1890    1.000000    
      5 Te2   c    0.213274    0.213274    0.213274     -0.1890    1.000000    
--------------------------------------------------------------------------------



********************************************************************************
*  Input for Configuration =  38                                               *
********************************************************************************

  Formula = Sb2Te3                                                      

  Number of irreducible atoms/shells =       5


  Total number atoms/shells =       5

  Dimensionality = 3               :  Bulk   



  Cartesian lattice vectors (Angstroms) :

       -2.504286    0.000000   10.443767
        1.252143   -2.168775   10.443767
        1.252143    2.168775   10.443767

  Cell parameters (Angstroms/Degrees):

  a =      10.7398    alpha =  23.3006
  b =      10.7398    beta  =  23.3006
  c =      10.7398    gamma =  23.3006

  Initial cell volume =         170.167643 Angs**3

  Temperature of configuration =  0.000     K 

  Pressure of configuration =         0.000 GPa 

  Fractional coordinates of asymmetric unit :

--------------------------------------------------------------------------------
   No.  Atomic       x           y          z         Charge      Occupancy
        Label      (Frac)      (Frac)     (Frac)        (e)         (Frac)  
--------------------------------------------------------------------------------
      1 Sb    c    0.396797    0.396797    0.396797      0.1090    1.000000    
      2 Sb    c    0.603203    0.603203    0.603203      0.1090    1.000000    
      3 Te1   c    0.000000    0.000000    0.000000      0.1600    1.000000    
      4 Te2   c    0.784571    0.784571    0.784571     -0.1890    1.000000    
      5 Te2   c    0.215429    0.215429    0.215429     -0.1890    1.000000    
--------------------------------------------------------------------------------



********************************************************************************
*  Input for Configuration =  39                                               *
********************************************************************************

  Formula = Sb2Te3                                                      

  Number of irreducible atoms/shells =       5


  Total number atoms/shells =       5

  Dimensionality = 3               :  Bulk   



  Cartesian lattice vectors (Angstroms) :

       -2.504286    0.000000   10.443767
        1.252143   -2.168775   10.443767
        1.252143    2.168775   10.443767

  Cell parameters (Angstroms/Degrees):

  a =      10.7398    alpha =  23.3006
  b =      10.7398    beta  =  23.3006
  c =      10.7398    gamma =  23.3006

  Initial cell volume =         170.167643 Angs**3

  Temperature of configuration =  0.000     K 

  Pressure of configuration =         0.000 GPa 

  Fractional coordinates of asymmetric unit :

--------------------------------------------------------------------------------
   No.  Atomic       x           y          z         Charge      Occupancy
        Label      (Frac)      (Frac)     (Frac)        (e)         (Frac)  
--------------------------------------------------------------------------------
      1 Sb    c    0.396797    0.396797    0.396797      0.1090    1.000000    
      2 Sb    c    0.603203    0.603203    0.603203      0.1090    1.000000    
      3 Te1   c    0.000000    0.000000    0.000000      0.1600    1.000000    
      4 Te2   c    0.784571    0.784571    0.784571     -0.1890    1.000000    
      5 Te2   c    0.217583    0.217583    0.217583     -0.1890    1.000000    
--------------------------------------------------------------------------------



********************************************************************************
*  Input for Configuration =  40                                               *
********************************************************************************

  Formula = Sb2Te3                                                      

  Number of irreducible atoms/shells =       5


  Total number atoms/shells =       5

  Dimensionality = 3               :  Bulk   



  Cartesian lattice vectors (Angstroms) :

       -2.504286    0.000000   10.443767
        1.252143   -2.168775   10.443767
        1.252143    2.168775   10.443767

  Cell parameters (Angstroms/Degrees):

  a =      10.7398    alpha =  23.3006
  b =      10.7398    beta  =  23.3006
  c =      10.7398    gamma =  23.3006

  Initial cell volume =         170.167643 Angs**3

  Temperature of configuration =  0.000     K 

  Pressure of configuration =         0.000 GPa 

  Fractional coordinates of asymmetric unit :

--------------------------------------------------------------------------------
   No.  Atomic       x           y          z         Charge      Occupancy
        Label      (Frac)      (Frac)     (Frac)        (e)         (Frac)  
--------------------------------------------------------------------------------
      1 Sb    c    0.396797    0.396797    0.396797      0.1090    1.000000    
      2 Sb    c    0.603203    0.603203    0.603203      0.1090    1.000000    
      3 Te1   c    0.000000    0.000000    0.000000      0.1600    1.000000    
      4 Te2   c    0.784571    0.784571    0.784571     -0.1890    1.000000    
      5 Te2   c    0.219737    0.219737    0.219737     -0.1890    1.000000    
--------------------------------------------------------------------------------



********************************************************************************
*  Input for Configuration =  41                                               *
********************************************************************************

  Formula = Sb2Te3                                                      

  Number of irreducible atoms/shells =       5


  Total number atoms/shells =       5

  Dimensionality = 3               :  Bulk   



  Cartesian lattice vectors (Angstroms) :

       -2.504286    0.000000   10.443767
        1.252143   -2.168775   10.443767
        1.252143    2.168775   10.443767

  Cell parameters (Angstroms/Degrees):

  a =      10.7398    alpha =  23.3006
  b =      10.7398    beta  =  23.3006
  c =      10.7398    gamma =  23.3006

  Initial cell volume =         170.167643 Angs**3

  Temperature of configuration =  0.000     K 

  Pressure of configuration =         0.000 GPa 

  Fractional coordinates of asymmetric unit :

--------------------------------------------------------------------------------
   No.  Atomic       x           y          z         Charge      Occupancy
        Label      (Frac)      (Frac)     (Frac)        (e)         (Frac)  
--------------------------------------------------------------------------------
      1 Sb    c    0.396797    0.396797    0.396797      0.1090    1.000000    
      2 Sb    c    0.603203    0.603203    0.603203      0.1090    1.000000    
      3 Te1   c    0.000000    0.000000    0.000000      0.1600    1.000000    
      4 Te2   c    0.784571    0.784571    0.784571     -0.1890    1.000000    
      5 Te2   c    0.221892    0.221892    0.221892     -0.1890    1.000000    
--------------------------------------------------------------------------------



********************************************************************************
*  Input for Configuration =  42                                               *
********************************************************************************

  Formula = Sb2Te3                                                      

  Number of irreducible atoms/shells =       5


  Total number atoms/shells =       5

  Dimensionality = 3               :  Bulk   



  Cartesian lattice vectors (Angstroms) :

       -2.504286    0.000000   10.443767
        1.252143   -2.168775   10.443767
        1.252143    2.168775   10.443767

  Cell parameters (Angstroms/Degrees):

  a =      10.7398    alpha =  23.3006
  b =      10.7398    beta  =  23.3006
  c =      10.7398    gamma =  23.3006

  Initial cell volume =         170.167643 Angs**3

  Temperature of configuration =  0.000     K 

  Pressure of configuration =         0.000 GPa 

  Fractional coordinates of asymmetric unit :

--------------------------------------------------------------------------------
   No.  Atomic       x           y          z         Charge      Occupancy
        Label      (Frac)      (Frac)     (Frac)        (e)         (Frac)  
--------------------------------------------------------------------------------
      1 Sb    c    0.396797    0.396797    0.396797      0.1090    1.000000    
      2 Sb    c    0.603203    0.603203    0.603203      0.1090    1.000000    
      3 Te1   c    0.000000    0.000000    0.000000      0.1600    1.000000    
      4 Te2   c    0.784571    0.784571    0.784571     -0.1890    1.000000    
      5 Te2   c    0.224046    0.224046    0.224046     -0.1890    1.000000    
--------------------------------------------------------------------------------



********************************************************************************
*  Input for Configuration =  43                                               *
********************************************************************************

  Formula = Sb2Te3                                                      

  Number of irreducible atoms/shells =       5


  Total number atoms/shells =       5

  Dimensionality = 3               :  Bulk   



  Cartesian lattice vectors (Angstroms) :

       -2.504286    0.000000   10.443767
        1.252143   -2.168775   10.443767
        1.252143    2.168775   10.443767

  Cell parameters (Angstroms/Degrees):

  a =      10.7398    alpha =  23.3006
  b =      10.7398    beta  =  23.3006
  c =      10.7398    gamma =  23.3006

  Initial cell volume =         170.167643 Angs**3

  Temperature of configuration =  0.000     K 

  Pressure of configuration =         0.000 GPa 

  Fractional coordinates of asymmetric unit :

--------------------------------------------------------------------------------
   No.  Atomic       x           y          z         Charge      Occupancy
        Label      (Frac)      (Frac)     (Frac)        (e)         (Frac)  
--------------------------------------------------------------------------------
      1 Sb    c    0.396797    0.396797    0.396797      0.1090    1.000000    
      2 Sb    c    0.603203    0.603203    0.603203      0.1090    1.000000    
      3 Te1   c    0.000000    0.000000    0.000000      0.1600    1.000000    
      4 Te2   c    0.784571    0.784571    0.784571     -0.1890    1.000000    
      5 Te2   c    0.226200    0.226200    0.226200     -0.1890    1.000000    
--------------------------------------------------------------------------------



********************************************************************************
*  Input for Configuration =  44                                               *
********************************************************************************

  Formula = Sb2Te3                                                      

  Number of irreducible atoms/shells =       5


  Total number atoms/shells =       5

  Dimensionality = 3               :  Bulk   



  Cartesian lattice vectors (Angstroms) :

       -2.504286    0.000000   10.443767
        1.252143   -2.168775   10.443767
        1.252143    2.168775   10.443767

  Cell parameters (Angstroms/Degrees):

  a =      10.7398    alpha =  23.3006
  b =      10.7398    beta  =  23.3006
  c =      10.7398    gamma =  23.3006

  Initial cell volume =         170.167643 Angs**3

  Temperature of configuration =  0.000     K 

  Pressure of configuration =         0.000 GPa 

  Fractional coordinates of asymmetric unit :

--------------------------------------------------------------------------------
   No.  Atomic       x           y          z         Charge      Occupancy
        Label      (Frac)      (Frac)     (Frac)        (e)         (Frac)  
--------------------------------------------------------------------------------
      1 Sb    c    0.396797    0.396797    0.396797      0.1090    1.000000    
      2 Sb    c    0.603203    0.603203    0.603203      0.1090    1.000000    
      3 Te1   c    0.000000    0.000000    0.000000      0.1600    1.000000    
      4 Te2   c    0.784571    0.784571    0.784571     -0.1890    1.000000    
      5 Te2   c    0.228354    0.228354    0.228354     -0.1890    1.000000    
--------------------------------------------------------------------------------



********************************************************************************
*  Input for Configuration =  45                                               *
********************************************************************************

  Formula = Sb2Te3                                                      

  Number of irreducible atoms/shells =       5


  Total number atoms/shells =       5

  Dimensionality = 3               :  Bulk   



  Cartesian lattice vectors (Angstroms) :

       -2.504286    0.000000   10.443767
        1.252143   -2.168775   10.443767
        1.252143    2.168775   10.443767

[...]
   3 Te1   x       0.0842      0.0000      0.0000
           y       0.0000      0.0842      0.0000
           z       0.0000      0.0000      0.0842
-------------------------------------------------------------------------------
   4 Te2   x      -0.1039      0.0000      0.0000
           y       0.0000     -0.1039      0.0000
           z       0.0000      0.0000     -0.1039
-------------------------------------------------------------------------------
   5 Te2   x      -0.1039      0.0000      0.0000
           y       0.0000     -0.1039      0.0000
           z       0.0000      0.0000     -0.1039
-------------------------------------------------------------------------------




  Elastic Constant Matrix: (Units=GPa)

-------------------------------------------------------------------------------
  Indices      1         2         3         4         5         6    
-------------------------------------------------------------------------------
       1     10.5926    7.7928    9.1587   -1.2525   -0.2914   -0.4908
       2      7.7928    8.0020    6.8864    1.7149    2.5343    1.0487
       3      9.1587    6.8864    6.4962   -0.3342   -1.6211    0.4893
       4     -1.2525    1.7149   -0.3342    1.5016    0.4475    2.5094
       5     -0.2914    2.5343   -1.6211    0.4475    3.5796   -1.2576
       6     -0.4908    1.0487    0.4893    2.5094   -1.2576    2.2081
-------------------------------------------------------------------------------


  Elastic Compliance Matrix: (Units=1/GPa)

-------------------------------------------------------------------------------
  Indices      1         2         3         4         5         6    
-------------------------------------------------------------------------------
       1   -0.736614  0.438839  0.531963 -0.170776 -0.265489 -0.447166
       2    0.438839 -0.415562 -0.099362  0.192207  0.369429  0.308899
       3    0.531963 -0.099362 -0.517606 -0.005073 -0.024604  0.271892
       4   -0.170776  0.192207 -0.005073 -0.480235  0.068116  0.456447
       5   -0.265489  0.369429 -0.024604  0.068116 -0.163908 -0.399780
       6   -0.447166  0.308899  0.271892  0.456447 -0.399780 -0.599905
-------------------------------------------------------------------------------

 Mechanical properties :

-------------------------------------------------------------------------------
  Convention :                    Reuss         Voigt         Hill
-------------------------------------------------------------------------------
  Bulk  Modulus (GPa)     =      13.68042       8.08519      10.88281
  Shear Modulus (GPa)     =      -1.07937       1.54137       0.23100
-------------------------------------------------------------------------------
  Velocity S-wave (km/s)  =      -1.32890       1.58804       0.61477
  Velocity P-wave (km/s)  =       4.47528       4.07318       4.27896
-------------------------------------------------------------------------------
  Compressibility (1/GPa) =    0.07309716
-------------------------------------------------------------------------------
  Stress axis :                     x             y             z
-------------------------------------------------------------------------------
  Youngs Moduli (GPa)     =      -1.35756      -2.40638      -1.93197
-------------------------------------------------------------------------------
  Poissons Ratio (x)      =                     1.05601       1.02774
  Poissons Ratio (y)      =       0.59575                    -0.19197
  Poissons Ratio (z)      =       0.72217      -0.23910
-------------------------------------------------------------------------------


  Piezoelectric Strain Matrix: (Units=C/m**2)

-------------------------------------------------------------------------------
  Indices      1         2         3         4         5         6    
-------------------------------------------------------------------------------
       x     0.00000   0.00000   0.00000  -0.00000  -0.00000  -0.00000
       y    -0.00000   0.00000   0.00000   0.00000  -0.00000   0.00000
       z    -0.00000   0.00000  -0.00000   0.00000   0.00000  -0.00000
-------------------------------------------------------------------------------


  Piezoelectric Stress Matrix: (Units=10**-11 C/N)

-------------------------------------------------------------------------------
  Indices      1         2         3         4         5         6    
-------------------------------------------------------------------------------
       x     0.00000  -0.00000  -0.00000   0.00000   0.00000   0.00000
       y     0.00000  -0.00000  -0.00000  -0.00000   0.00000   0.00000
       z     0.00000  -0.00000   0.00000   0.00000   0.00000   0.00000
-------------------------------------------------------------------------------


  Static dielectric constant tensor : 

-------------------------------------------------------------------------------
              x         y         z
-------------------------------------------------------------------------------
       x     1.00891  -0.00007  -0.00004
       y    -0.00007   1.00925  -0.00001
       z    -0.00004  -0.00001   1.00926
--------------------------------------------------------------------------------

  Static refractive indices : 

-------------------------------------------------------------------------------
    1 =    1.00444      2 =    1.00462      3 =    1.00462
-------------------------------------------------------------------------------


  Time to end of properties =     423.3865 seconds


********************************************************************************
*  Output for configuration 103                                                *
********************************************************************************


  Components of energy : 

--------------------------------------------------------------------------------
  Interatomic potentials     =          -2.21872726 eV
  Monopole - monopole (real) =           0.00228550 eV
  Monopole - monopole (recip)=          -0.00983322 eV
  Monopole - monopole (total)=          -0.00754772 eV
  Energy shift               =         -16.00883148 eV
--------------------------------------------------------------------------------
  Total lattice energy       =         -18.23510646 eV
--------------------------------------------------------------------------------
  Total lattice energy       =           -1759.4090 kJ/(mole unit cells)
--------------------------------------------------------------------------------


  Number of variables =     18

  Maximum number of calculations  =          1000
  Maximum Hessian update interval =            10
  Maximum step size               =   1.000000000
  Maximum parameter tolerance     =   0.000010000
  Maximum function  tolerance     =   0.000010000
  Maximum gradient  tolerance     =   0.001000000
  Maximum gradient  component     =   0.010000000

  Symmetry not applied to optimisation

  Cell parameters to be optimised using strains

  Newton-Raphson optimiser to be used

  BFGS hessian update to be used

  Dumpfile to be written after every cycle

  Start of bulk optimisation :

  Cycle:      0 Energy:       -18.235106  Gnorm:      0.069117  CPU:  423.406
  ** Hessian calculated **
  Cycle:      1 Energy:       -18.238975  Gnorm:      0.128597  CPU:  423.410
  Cycle:      2 Energy:       -18.242509  Gnorm:      0.114714  CPU:  423.434
  Cycle:      3 Energy:       -18.244001  Gnorm:      0.030459  CPU:  423.458
  Cycle:      4 Energy:       -18.254862  Gnorm:      0.064763  CPU:  423.486
  Cycle:      5 Energy:       -18.269735  Gnorm:      0.170837  CPU:  423.510
  Cycle:      6 Energy:       -18.291004  Gnorm:      0.297255  CPU:  423.534
  Cycle:      7 Energy:       -18.310613  Gnorm:      0.130010  CPU:  423.558
  Cycle:      8 Energy:       -18.366695  Gnorm:      0.202931  CPU:  423.586
  ** Hessian calculated **
  Cycle:      9 Energy:       -18.390443  Gnorm:      0.177027  CPU:  423.610
  Cycle:     10 Energy:       -18.629845  Gnorm:      0.397931  CPU:  423.638
  Cycle:     11 Energy:       -18.653213  Gnorm:      0.323443  CPU:  423.662
  Cycle:     12 Energy:       -18.721545  Gnorm:      0.310753  CPU:  423.686
  Cycle:     13 Energy:       -18.737646  Gnorm:      0.138233  CPU:  423.710
  Cycle:     14 Energy:       -18.746851  Gnorm:      0.065350  CPU:  423.730
  Cycle:     15 Energy:       -18.750754  Gnorm:      0.092885  CPU:  423.754
  Cycle:     16 Energy:       -18.752033  Gnorm:      0.076693  CPU:  423.778
  Cycle:     17 Energy:       -18.753295  Gnorm:      0.027191  CPU:  423.802
  Cycle:     18 Energy:       -18.754233  Gnorm:      0.042994  CPU:  423.826
  ** Hessian calculated **
  Cycle:     19 Energy:       -18.754961  Gnorm:      0.023177  CPU:  423.850
  Cycle:     20 Energy:       -18.755225  Gnorm:      0.010024  CPU:  423.874
  Cycle:     21 Energy:       -18.755303  Gnorm:      0.004720  CPU:  423.898
  Cycle:     22 Energy:       -18.755321  Gnorm:      0.004577  CPU:  423.918
  Cycle:     23 Energy:       -18.755327  Gnorm:      0.001334  CPU:  423.942


  **** Optimisation achieved ****


  Final energy =     -18.75532822 eV
  Final Gnorm  =       0.00051280

  Components of energy : 

--------------------------------------------------------------------------------
  Interatomic potentials     =          -2.61854523 eV
  Monopole - monopole (real) =          -0.02342117 eV
  Monopole - monopole (recip)=          -0.10453034 eV
  Monopole - monopole (total)=          -0.12795151 eV
  Energy shift               =         -16.00883148 eV
--------------------------------------------------------------------------------
  Total lattice energy       =         -18.75532822 eV
--------------------------------------------------------------------------------
  Total lattice energy       =           -1809.6025 kJ/(mole unit cells)
--------------------------------------------------------------------------------

  Final fractional coordinates of atoms :

--------------------------------------------------------------------------------
   No.  Atomic        x           y          z          Radius
        Label       (Frac)      (Frac)     (Frac)       (Angs) 
--------------------------------------------------------------------------------
     1  Sb    c     0.396797    0.396797    0.396797    0.000000
     2  Sb    c     0.591772    0.591776    0.591880    0.000000
     3  Te1   c     0.994284    0.994290    0.994333    0.000000
     4  Te2   c     0.749828    0.749844    0.749939    0.000000
     5  Te2   c     0.238740    0.238730    0.238730    0.000000
--------------------------------------------------------------------------------

  Final Cartesian lattice vectors (Angstroms) :

        6.963281   -1.225543   -0.727003
        5.910643    3.879821   -0.727025
        5.910858    1.218649    3.756344


  Final cell parameters and derivatives :

--------------------------------------------------------------------------------
       a            7.107586 Angstrom     dE/de1(xx)    -0.001168 eV/strain
       b            7.107550 Angstrom     dE/de2(yy)     0.000239 eV/strain
       c            7.108690 Angstrom     dE/de3(zz)     0.000149 eV/strain
       alpha       43.029528 Degrees      dE/de4(yz)     0.000395 eV/strain
       beta        43.029106 Degrees      dE/de5(xz)     0.000137 eV/strain
       gamma       43.025023 Degrees      dE/de6(xy)    -0.000298 eV/strain
--------------------------------------------------------------------------------

  Primitive cell volume =           151.564236 Angs**3

  Density of cell =      6.861857 g/cm**3

  Non-primitive cell volume =           151.564236 Angs**3


  Final internal derivatives :

--------------------------------------------------------------------------------
   No.  Atomic          x             y             z           Radius
        Label          (eV)          (eV)          (eV)        (eV/Angs)
--------------------------------------------------------------------------------
      1 Sb    c       0.000000      0.000000      0.000000      0.000000
      2 Sb    c       0.003339      0.004112      0.005450      0.000000
      3 Te1   c      -0.000017      0.000094     -0.000131      0.000000
      4 Te2   c      -0.003295     -0.002397     -0.000757      0.000000
      5 Te2   c       0.002335      0.001616     -0.000688      0.000000
--------------------------------------------------------------------------------
  Maximum abs         0.003339      0.004112      0.005450      0.000000
--------------------------------------------------------------------------------


  Born effective charge tensors : 

-------------------------------------------------------------------------------
  Atom             x           y             z
-------------------------------------------------------------------------------
   1 Sb    x       0.0618      0.0000      0.0000
           y       0.0000      0.0618      0.0000
           z       0.0000      0.0000      0.0618
-------------------------------------------------------------------------------
   2 Sb    x       0.0618      0.0000      0.0000
           y       0.0000      0.0618      0.0000
           z       0.0000      0.0000      0.0618
-------------------------------------------------------------------------------
   3 Te1   x       0.0842      0.0000      0.0000
           y       0.0000      0.0842      0.0000
           z       0.0000      0.0000      0.0842
-------------------------------------------------------------------------------
   4 Te2   x      -0.1039      0.0000      0.0000
           y       0.0000     -0.1039      0.0000
           z       0.0000      0.0000     -0.1039
-------------------------------------------------------------------------------
   5 Te2   x      -0.1039      0.0000      0.0000
           y       0.0000     -0.1039      0.0000
           z       0.0000      0.0000     -0.1039
-------------------------------------------------------------------------------




  Elastic Constant Matrix: (Units=GPa)

-------------------------------------------------------------------------------
  Indices      1         2         3         4         5         6    
-------------------------------------------------------------------------------
       1     11.5286   -1.8859   -2.2489    0.3321    2.2122    3.7169
       2     -1.8859   62.7116   50.5197   -0.9493   -5.2030  -14.7398
       3     -2.2489   50.5197   66.1111   -2.1235  -10.2973  -11.3639
       4      0.3321   -0.9493   -2.1235    7.7126   -1.5765    0.6049
       5      2.2122   -5.2030  -10.2973   -1.5765    0.3898    1.5296
       6      3.7169  -14.7398  -11.3639    0.6049    1.5296    2.0496
-------------------------------------------------------------------------------


  Elastic Compliance Matrix: (Units=1/GPa)

-------------------------------------------------------------------------------
  Indices      1         2         3         4         5         6    
-------------------------------------------------------------------------------
       1    0.041114  0.022104  0.016457  0.010670  0.071186  0.119372
       2    0.022104  0.009009 -0.015769  0.014638  0.051587 -0.105538
       3    0.016457 -0.015769  0.012891 -0.021867 -0.106068  0.013837
       4    0.010670  0.014638 -0.021867  0.100361 -0.113000  0.019391
       5    0.071186  0.051587 -0.106068 -0.113000 -0.424496  0.003951
       6    0.119372 -0.105538  0.013837  0.019391  0.003951 -0.419508
-------------------------------------------------------------------------------

 Mechanical properties :

-------------------------------------------------------------------------------
  Convention :                    Reuss         Voigt         Hill
-------------------------------------------------------------------------------
  Bulk  Modulus (GPa)     =       9.20826      25.90235      17.55531
  Shear Modulus (GPa)     =      -7.24623       8.29484       0.52431
-------------------------------------------------------------------------------
  Velocity S-wave (km/s)  =      -3.24964       3.47683       0.87412
  Velocity P-wave (km/s)  =       0.81284       7.33935       5.15778
-------------------------------------------------------------------------------
  Compressibility (1/GPa) =    0.10859812
-------------------------------------------------------------------------------
  Stress axis :                     x             y             z
-------------------------------------------------------------------------------
  Youngs Moduli (GPa)     =      24.32285     110.99476      77.57428
-------------------------------------------------------------------------------
  Poissons Ratio (x)      =                    -2.45338      -1.27665
  Poissons Ratio (y)      =      -0.53762                     1.22324
  Poissons Ratio (z)      =      -0.40029       1.75023
-------------------------------------------------------------------------------


  Piezoelectric Strain Matrix: (Units=C/m**2)

-------------------------------------------------------------------------------
  Indices      1         2         3         4         5         6    
-------------------------------------------------------------------------------
       x     0.00000  -0.00004  -0.00002   0.00001   0.00001   0.00001
       y     0.00000  -0.00001  -0.00001  -0.00001   0.00000  -0.00000
       z    -0.00001   0.00001   0.00000   0.00000  -0.00001  -0.00001
-------------------------------------------------------------------------------


  Piezoelectric Stress Matrix: (Units=10**-11 C/N)

-------------------------------------------------------------------------------
  Indices      1         2         3         4         5         6    
-------------------------------------------------------------------------------
       x     0.00001  -0.00003  -0.00002   0.00001  -0.00030   0.00019
       y     0.00000   0.00003  -0.00001  -0.00011   0.00004   0.00011
       z    -0.00011   0.00002   0.00004   0.00011   0.00029   0.00003
-------------------------------------------------------------------------------


  Static dielectric constant tensor : 

-------------------------------------------------------------------------------
              x         y         z
-------------------------------------------------------------------------------
       x     1.01611   0.00173   0.00103
       y     0.00173   1.00808   0.00021
       z     0.00103   0.00021   1.00785
--------------------------------------------------------------------------------

  Static refractive indices : 

-------------------------------------------------------------------------------
    1 =    1.00385      2 =    1.00385      3 =    1.00826
-------------------------------------------------------------------------------


  Time to end of optimisation =     423.9705 seconds


  Peak dynamic memory used =       1.34 MB 


  Timing analysis for GULP :

--------------------------------------------------------------------------------
  Task / Subroutine                                          Time (Seconds)
--------------------------------------------------------------------------------
  Calculation of reciprocal space energy and derivatives         28.3698
  Calculation of real space energy and derivatives              381.3598
  Sum of squares for fitting                                     10.3767
  Global summation overhead                                       0.4240
--------------------------------------------------------------------------------
  Total CPU time                                                423.9705
--------------------------------------------------------------------------------


  Dump file written as sb2te3.res                                              



  **** GULP has completed with 102 warnings - beware! ****

  Job Finished at 12:20.34 22nd June       2010                               

