********************************************************************************
*                       GENERAL UTILITY LATTICE PROGRAM                        *
*                                 Julian Gale                                  *
*                      Nanochemistry Research Institute                        *
*             Curtin University of Technology, Western Australia               *
********************************************************************************
* Version = 3.4.7 * Last modified =  21st July 2009                            *
********************************************************************************
*  fit          - perform fitting run                                          *
*  optimise     - perform optimisation run after fitting                       *
*  property     - calculate properties for final geometry                      *
*  fbfgs        - use full numerical Hessian in BFGS for fitting               *
********************************************************************************

  Job Started  at 10:32.02 21st June       2010                               

  Number of CPUs =     1


  Total number of configurations input = 151

********************************************************************************
*  Input for Configuration =   1                                               *
********************************************************************************

  Formula = Sb2Te3                                                      

  Number of irreducible atoms/shells =       5


  Total number atoms/shells =       5

  Dimensionality = 3               :  Bulk   



  Cartesian lattice vectors (Angstroms) :

       -2.504286    0.000000   10.443767
        1.252143   -2.168775   10.443767
        1.252143    2.168775   10.443767

  Cell parameters (Angstroms/Degrees):

  a =      10.7398    alpha =  23.3006
  b =      10.7398    beta  =  23.3006
  c =      10.7398    gamma =  23.3006

  Initial cell volume =         170.167643 Angs**3

  Temperature of configuration =  0.000     K 

  Pressure of configuration =         0.000 GPa 

  Fractional coordinates of asymmetric unit :

--------------------------------------------------------------------------------
   No.  Atomic       x           y          z         Charge      Occupancy
        Label      (Frac)      (Frac)     (Frac)        (e)         (Frac)  
--------------------------------------------------------------------------------
      1 Sb    c    0.369021    0.369021    0.369021      0.0000    1.000000    
      2 Sb    c    0.603203    0.603203    0.603203      0.0000    1.000000    
      3 Te1   c    0.000000    0.000000    0.000000     -0.0000    1.000000    
      4 Te2   c    0.784571    0.784571    0.784571     -0.0000    1.000000    
      5 Te2   c    0.215429    0.215429    0.215429     -0.0000    1.000000    
--------------------------------------------------------------------------------



********************************************************************************
*  Input for Configuration =   2                                               *
********************************************************************************

  Formula = Sb2Te3                                                      

  Number of irreducible atoms/shells =       5


  Total number atoms/shells =       5

  Dimensionality = 3               :  Bulk   



  Cartesian lattice vectors (Angstroms) :

       -2.504286    0.000000   10.443767
        1.252143   -2.168775   10.443767
        1.252143    2.168775   10.443767

  Cell parameters (Angstroms/Degrees):

  a =      10.7398    alpha =  23.3006
  b =      10.7398    beta  =  23.3006
  c =      10.7398    gamma =  23.3006

  Initial cell volume =         170.167643 Angs**3

  Temperature of configuration =  0.000     K 

  Pressure of configuration =         0.000 GPa 

  Fractional coordinates of asymmetric unit :

--------------------------------------------------------------------------------
   No.  Atomic       x           y          z         Charge      Occupancy
        Label      (Frac)      (Frac)     (Frac)        (e)         (Frac)  
--------------------------------------------------------------------------------
      1 Sb    c    0.372989    0.372989    0.372989      0.0000    1.000000    
      2 Sb    c    0.603203    0.603203    0.603203      0.0000    1.000000    
      3 Te1   c    0.000000    0.000000    0.000000     -0.0000    1.000000    
      4 Te2   c    0.784571    0.784571    0.784571     -0.0000    1.000000    
      5 Te2   c    0.215429    0.215429    0.215429     -0.0000    1.000000    
--------------------------------------------------------------------------------



********************************************************************************
*  Input for Configuration =   3                                               *
********************************************************************************

  Formula = Sb2Te3                                                      

  Number of irreducible atoms/shells =       5


  Total number atoms/shells =       5

  Dimensionality = 3               :  Bulk   



  Cartesian lattice vectors (Angstroms) :

       -2.504286    0.000000   10.443767
        1.252143   -2.168775   10.443767
        1.252143    2.168775   10.443767

  Cell parameters (Angstroms/Degrees):

  a =      10.7398    alpha =  23.3006
  b =      10.7398    beta  =  23.3006
  c =      10.7398    gamma =  23.3006

  Initial cell volume =         170.167643 Angs**3

  Temperature of configuration =  0.000     K 

  Pressure of configuration =         0.000 GPa 

  Fractional coordinates of asymmetric unit :

--------------------------------------------------------------------------------
   No.  Atomic       x           y          z         Charge      Occupancy
        Label      (Frac)      (Frac)     (Frac)        (e)         (Frac)  
--------------------------------------------------------------------------------
      1 Sb    c    0.376957    0.376957    0.376957      0.0000    1.000000    
      2 Sb    c    0.603203    0.603203    0.603203      0.0000    1.000000    
      3 Te1   c    0.000000    0.000000    0.000000     -0.0000    1.000000    
      4 Te2   c    0.784571    0.784571    0.784571     -0.0000    1.000000    
      5 Te2   c    0.215429    0.215429    0.215429     -0.0000    1.000000    
--------------------------------------------------------------------------------



********************************************************************************
*  Input for Configuration =   4                                               *
********************************************************************************

  Formula = Sb2Te3                                                      

  Number of irreducible atoms/shells =       5


  Total number atoms/shells =       5

  Dimensionality = 3               :  Bulk   



  Cartesian lattice vectors (Angstroms) :

       -2.504286    0.000000   10.443767
        1.252143   -2.168775   10.443767
        1.252143    2.168775   10.443767

  Cell parameters (Angstroms/Degrees):

  a =      10.7398    alpha =  23.3006
  b =      10.7398    beta  =  23.3006
  c =      10.7398    gamma =  23.3006

  Initial cell volume =         170.167643 Angs**3

  Temperature of configuration =  0.000     K 

  Pressure of configuration =         0.000 GPa 

  Fractional coordinates of asymmetric unit :

--------------------------------------------------------------------------------
   No.  Atomic       x           y          z         Charge      Occupancy
        Label      (Frac)      (Frac)     (Frac)        (e)         (Frac)  
--------------------------------------------------------------------------------
      1 Sb    c    0.380925    0.380925    0.380925      0.0000    1.000000    
      2 Sb    c    0.603203    0.603203    0.603203      0.0000    1.000000    
      3 Te1   c    0.000000    0.000000    0.000000     -0.0000    1.000000    
      4 Te2   c    0.784571    0.784571    0.784571     -0.0000    1.000000    
      5 Te2   c    0.215429    0.215429    0.215429     -0.0000    1.000000    
--------------------------------------------------------------------------------



********************************************************************************
*  Input for Configuration =   5                                               *
********************************************************************************

  Formula = Sb2Te3                                                      

  Number of irreducible atoms/shells =       5


  Total number atoms/shells =       5

  Dimensionality = 3               :  Bulk   



  Cartesian lattice vectors (Angstroms) :

       -2.504286    0.000000   10.443767
        1.252143   -2.168775   10.443767
        1.252143    2.168775   10.443767

  Cell parameters (Angstroms/Degrees):

  a =      10.7398    alpha =  23.3006
  b =      10.7398    beta  =  23.3006
  c =      10.7398    gamma =  23.3006

  Initial cell volume =         170.167643 Angs**3

  Temperature of configuration =  0.000     K 

  Pressure of configuration =         0.000 GPa 

  Fractional coordinates of asymmetric unit :

--------------------------------------------------------------------------------
   No.  Atomic       x           y          z         Charge      Occupancy
        Label      (Frac)      (Frac)     (Frac)        (e)         (Frac)  
--------------------------------------------------------------------------------
      1 Sb    c    0.384893    0.384893    0.384893      0.0000    1.000000    
      2 Sb    c    0.603203    0.603203    0.603203      0.0000    1.000000    
      3 Te1   c    0.000000    0.000000    0.000000     -0.0000    1.000000    
      4 Te2   c    0.784571    0.784571    0.784571     -0.0000    1.000000    
      5 Te2   c    0.215429    0.215429    0.215429     -0.0000    1.000000    
--------------------------------------------------------------------------------



********************************************************************************
*  Input for Configuration =   6                                               *
********************************************************************************

  Formula = Sb2Te3                                                      

  Number of irreducible atoms/shells =       5


  Total number atoms/shells =       5

  Dimensionality = 3               :  Bulk   



  Cartesian lattice vectors (Angstroms) :

       -2.504286    0.000000   10.443767
        1.252143   -2.168775   10.443767
        1.252143    2.168775   10.443767

  Cell parameters (Angstroms/Degrees):

  a =      10.7398    alpha =  23.3006
  b =      10.7398    beta  =  23.3006
  c =      10.7398    gamma =  23.3006

  Initial cell volume =         170.167643 Angs**3

  Temperature of configuration =  0.000     K 

  Pressure of configuration =         0.000 GPa 

  Fractional coordinates of asymmetric unit :

--------------------------------------------------------------------------------
   No.  Atomic       x           y          z         Charge      Occupancy
        Label      (Frac)      (Frac)     (Frac)        (e)         (Frac)  
--------------------------------------------------------------------------------
      1 Sb    c    0.388861    0.388861    0.388861      0.0000    1.000000    
      2 Sb    c    0.603203    0.603203    0.603203      0.0000    1.000000    
      3 Te1   c    0.000000    0.000000    0.000000     -0.0000    1.000000    
      4 Te2   c    0.784571    0.784571    0.784571     -0.0000    1.000000    
      5 Te2   c    0.215429    0.215429    0.215429     -0.0000    1.000000    
--------------------------------------------------------------------------------



********************************************************************************
*  Input for Configuration =   7                                               *
********************************************************************************

  Formula = Sb2Te3                                                      

  Number of irreducible atoms/shells =       5


  Total number atoms/shells =       5

  Dimensionality = 3               :  Bulk   



  Cartesian lattice vectors (Angstroms) :

       -2.504286    0.000000   10.443767
        1.252143   -2.168775   10.443767
        1.252143    2.168775   10.443767

  Cell parameters (Angstroms/Degrees):

  a =      10.7398    alpha =  23.3006
  b =      10.7398    beta  =  23.3006
  c =      10.7398    gamma =  23.3006

  Initial cell volume =         170.167643 Angs**3

  Temperature of configuration =  0.000     K 

  Pressure of configuration =         0.000 GPa 

  Fractional coordinates of asymmetric unit :

--------------------------------------------------------------------------------
   No.  Atomic       x           y          z         Charge      Occupancy
        Label      (Frac)      (Frac)     (Frac)        (e)         (Frac)  
--------------------------------------------------------------------------------
      1 Sb    c    0.392829    0.392829    0.392829      0.0000    1.000000    
      2 Sb    c    0.603203    0.603203    0.603203      0.0000    1.000000    
      3 Te1   c    0.000000    0.000000    0.000000     -0.0000    1.000000    
      4 Te2   c    0.784571    0.784571    0.784571     -0.0000    1.000000    
      5 Te2   c    0.215429    0.215429    0.215429     -0.0000    1.000000    
--------------------------------------------------------------------------------



********************************************************************************
*  Input for Configuration =   8                                               *
********************************************************************************

  Formula = Sb2Te3                                                      

  Number of irreducible atoms/shells =       5


  Total number atoms/shells =       5

  Dimensionality = 3               :  Bulk   



  Cartesian lattice vectors (Angstroms) :

       -2.504286    0.000000   10.443767
        1.252143   -2.168775   10.443767
        1.252143    2.168775   10.443767

  Cell parameters (Angstroms/Degrees):

  a =      10.7398    alpha =  23.3006
  b =      10.7398    beta  =  23.3006
  c =      10.7398    gamma =  23.3006

  Initial cell volume =         170.167643 Angs**3

  Temperature of configuration =  0.000     K 

  Pressure of configuration =         0.000 GPa 

  Fractional coordinates of asymmetric unit :

--------------------------------------------------------------------------------
   No.  Atomic       x           y          z         Charge      Occupancy
        Label      (Frac)      (Frac)     (Frac)        (e)         (Frac)  
--------------------------------------------------------------------------------
      1 Sb    c    0.396797    0.396797    0.396797      0.0000    1.000000    
      2 Sb    c    0.603203    0.603203    0.603203      0.0000    1.000000    
      3 Te1   c    0.000000    0.000000    0.000000     -0.0000    1.000000    
      4 Te2   c    0.784571    0.784571    0.784571     -0.0000    1.000000    
      5 Te2   c    0.215429    0.215429    0.215429     -0.0000    1.000000    
--------------------------------------------------------------------------------



********************************************************************************
*  Input for Configuration =   9                                               *
********************************************************************************

  Formula = Sb2Te3                                                      

  Number of irreducible atoms/shells =       5


  Total number atoms/shells =       5

  Dimensionality = 3               :  Bulk   



  Cartesian lattice vectors (Angstroms) :

       -2.504286    0.000000   10.443767
        1.252143   -2.168775   10.443767
        1.252143    2.168775   10.443767

  Cell parameters (Angstroms/Degrees):

  a =      10.7398    alpha =  23.3006
  b =      10.7398    beta  =  23.3006
  c =      10.7398    gamma =  23.3006

  Initial cell volume =         170.167643 Angs**3

  Temperature of configuration =  0.000     K 

  Pressure of configuration =         0.000 GPa 

  Fractional coordinates of asymmetric unit :

--------------------------------------------------------------------------------
   No.  Atomic       x           y          z         Charge      Occupancy
        Label      (Frac)      (Frac)     (Frac)        (e)         (Frac)  
--------------------------------------------------------------------------------
      1 Sb    c    0.400765    0.400765    0.400765      0.0000    1.000000    
      2 Sb    c    0.603203    0.603203    0.603203      0.0000    1.000000    
      3 Te1   c    0.000000    0.000000    0.000000     -0.0000    1.000000    
      4 Te2   c    0.784571    0.784571    0.784571     -0.0000    1.000000    
      5 Te2   c    0.215429    0.215429    0.215429     -0.0000    1.000000    
--------------------------------------------------------------------------------



********************************************************************************
*  Input for Configuration =  10                                               *
********************************************************************************

  Formula = Sb2Te3                                                      

  Number of irreducible atoms/shells =       5


  Total number atoms/shells =       5

  Dimensionality = 3               :  Bulk   



  Cartesian lattice vectors (Angstroms) :

       -2.504286    0.000000   10.443767
        1.252143   -2.168775   10.443767
        1.252143    2.168775   10.443767

  Cell parameters (Angstroms/Degrees):

  a =      10.7398    alpha =  23.3006
  b =      10.7398    beta  =  23.3006
  c =      10.7398    gamma =  23.3006

  Initial cell volume =         170.167643 Angs**3

  Temperature of configuration =  0.000     K 

  Pressure of configuration =         0.000 GPa 

  Fractional coordinates of asymmetric unit :

--------------------------------------------------------------------------------
   No.  Atomic       x           y          z         Charge      Occupancy
        Label      (Frac)      (Frac)     (Frac)        (e)         (Frac)  
--------------------------------------------------------------------------------
      1 Sb    c    0.404733    0.404733    0.404733      0.0000    1.000000    
      2 Sb    c    0.603203    0.603203    0.603203      0.0000    1.000000    
      3 Te1   c    0.000000    0.000000    0.000000     -0.0000    1.000000    
      4 Te2   c    0.784571    0.784571    0.784571     -0.0000    1.000000    
      5 Te2   c    0.215429    0.215429    0.215429     -0.0000    1.000000    
--------------------------------------------------------------------------------



********************************************************************************
*  Input for Configuration =  11                                               *
********************************************************************************

  Formula = Sb2Te3                                                      

  Number of irreducible atoms/shells =       5


  Total number atoms/shells =       5

  Dimensionality = 3               :  Bulk   



  Cartesian lattice vectors (Angstroms) :

       -2.504286    0.000000   10.443767
        1.252143   -2.168775   10.443767
        1.252143    2.168775   10.443767

  Cell parameters (Angstroms/Degrees):

  a =      10.7398    alpha =  23.3006
  b =      10.7398    beta  =  23.3006
  c =      10.7398    gamma =  23.3006

  Initial cell volume =         170.167643 Angs**3

  Temperature of configuration =  0.000     K 

  Pressure of configuration =         0.000 GPa 

  Fractional coordinates of asymmetric unit :

--------------------------------------------------------------------------------
   No.  Atomic       x           y          z         Charge      Occupancy
        Label      (Frac)      (Frac)     (Frac)        (e)         (Frac)  
--------------------------------------------------------------------------------
      1 Sb    c    0.408700    0.408700    0.408700      0.0000    1.000000    
      2 Sb    c    0.603203    0.603203    0.603203      0.0000    1.000000    
      3 Te1   c    0.000000    0.000000    0.000000     -0.0000    1.000000    
      4 Te2   c    0.784571    0.784571    0.784571     -0.0000    1.000000    
      5 Te2   c    0.215429    0.215429    0.215429     -0.0000    1.000000    
--------------------------------------------------------------------------------



********************************************************************************
*  Input for Configuration =  12                                               *
********************************************************************************

  Formula = Sb2Te3                                                      

  Number of irreducible atoms/shells =       5


  Total number atoms/shells =       5

  Dimensionality = 3               :  Bulk   



  Cartesian lattice vectors (Angstroms) :

       -2.504286    0.000000   10.443767
        1.252143   -2.168775   10.443767
        1.252143    2.168775   10.443767

  Cell parameters (Angstroms/Degrees):

  a =      10.7398    alpha =  23.3006
  b =      10.7398    beta  =  23.3006
  c =      10.7398    gamma =  23.3006

  Initial cell volume =         170.167643 Angs**3

  Temperature of configuration =  0.000     K 

  Pressure of configuration =         0.000 GPa 

  Fractional coordinates of asymmetric unit :

--------------------------------------------------------------------------------
   No.  Atomic       x           y          z         Charge      Occupancy
        Label      (Frac)      (Frac)     (Frac)        (e)         (Frac)  
--------------------------------------------------------------------------------
      1 Sb    c    0.412668    0.412668    0.412668      0.0000    1.000000    
      2 Sb    c    0.603203    0.603203    0.603203      0.0000    1.000000    
      3 Te1   c    0.000000    0.000000    0.000000     -0.0000    1.000000    
      4 Te2   c    0.784571    0.784571    0.784571     -0.0000    1.000000    
      5 Te2   c    0.215429    0.215429    0.215429     -0.0000    1.000000    
--------------------------------------------------------------------------------



********************************************************************************
*  Input for Configuration =  13                                               *
********************************************************************************

  Formula = Sb2Te3                                                      

  Number of irreducible atoms/shells =       5


  Total number atoms/shells =       5

  Dimensionality = 3               :  Bulk   



  Cartesian lattice vectors (Angstroms) :

       -2.504286    0.000000   10.443767
        1.252143   -2.168775   10.443767
        1.252143    2.168775   10.443767

  Cell parameters (Angstroms/Degrees):

  a =      10.7398    alpha =  23.3006
  b =      10.7398    beta  =  23.3006
  c =      10.7398    gamma =  23.3006

  Initial cell volume =         170.167643 Angs**3

  Temperature of configuration =  0.000     K 

  Pressure of configuration =         0.000 GPa 

  Fractional coordinates of asymmetric unit :

--------------------------------------------------------------------------------
   No.  Atomic       x           y          z         Charge      Occupancy
        Label      (Frac)      (Frac)     (Frac)        (e)         (Frac)  
--------------------------------------------------------------------------------
      1 Sb    c    0.416636    0.416636    0.416636      0.0000    1.000000    
      2 Sb    c    0.603203    0.603203    0.603203      0.0000    1.000000    
      3 Te1   c    0.000000    0.000000    0.000000     -0.0000    1.000000    
      4 Te2   c    0.784571    0.784571    0.784571     -0.0000    1.000000    
      5 Te2   c    0.215429    0.215429    0.215429     -0.0000    1.000000    
--------------------------------------------------------------------------------



********************************************************************************
*  Input for Configuration =  14                                               *
********************************************************************************

  Formula = Sb2Te3                                                      

  Number of irreducible atoms/shells =       5


  Total number atoms/shells =       5

  Dimensionality = 3               :  Bulk   



  Cartesian lattice vectors (Angstroms) :

       -2.504286    0.000000   10.443767
        1.252143   -2.168775   10.443767
        1.252143    2.168775   10.443767

  Cell parameters (Angstroms/Degrees):

  a =      10.7398    alpha =  23.3006
  b =      10.7398    beta  =  23.3006
  c =      10.7398    gamma =  23.3006

  Initial cell volume =         170.167643 Angs**3

  Temperature of configuration =  0.000     K 

  Pressure of configuration =         0.000 GPa 

  Fractional coordinates of asymmetric unit :

--------------------------------------------------------------------------------
   No.  Atomic       x           y          z         Charge      Occupancy
        Label      (Frac)      (Frac)     (Frac)        (e)         (Frac)  
--------------------------------------------------------------------------------
      1 Sb    c    0.420604    0.420604    0.420604      0.0000    1.000000    
      2 Sb    c    0.603203    0.603203    0.603203      0.0000    1.000000    
      3 Te1   c    0.000000    0.000000    0.000000     -0.0000    1.000000    
      4 Te2   c    0.784571    0.784571    0.784571     -0.0000    1.000000    
      5 Te2   c    0.215429    0.215429    0.215429     -0.0000    1.000000    
--------------------------------------------------------------------------------



********************************************************************************
*  Input for Configuration =  15                                               *
********************************************************************************

  Formula = Sb2Te3                                                      

  Number of irreducible atoms/shells =       5


  Total number atoms/shells =       5

  Dimensionality = 3               :  Bulk   



  Cartesian lattice vectors (Angstroms) :

       -2.504286    0.000000   10.443767
        1.252143   -2.168775   10.443767
        1.252143    2.168775   10.443767

  Cell parameters (Angstroms/Degrees):

  a =      10.7398    alpha =  23.3006
  b =      10.7398    beta  =  23.3006
  c =      10.7398    gamma =  23.3006

  Initial cell volume =         170.167643 Angs**3

  Temperature of configuration =  0.000     K 

  Pressure of configuration =         0.000 GPa 

  Fractional coordinates of asymmetric unit :

--------------------------------------------------------------------------------
   No.  Atomic       x           y          z         Charge      Occupancy
        Label      (Frac)      (Frac)     (Frac)        (e)         (Frac)  
--------------------------------------------------------------------------------
      1 Sb    c    0.424572    0.424572    0.424572      0.0000    1.000000    
      2 Sb    c    0.603203    0.603203    0.603203      0.0000    1.000000    
      3 Te1   c    0.000000    0.000000    0.000000     -0.0000    1.000000    
      4 Te2   c    0.784571    0.784571    0.784571     -0.0000    1.000000    
      5 Te2   c    0.215429    0.215429    0.215429     -0.0000    1.000000    
--------------------------------------------------------------------------------



********************************************************************************
*  Input for Configuration =  16                                               *
********************************************************************************

  Formula = Sb2Te3                                                      

  Number of irreducible atoms/shells =       5


  Total number atoms/shells =       5

  Dimensionality = 3               :  Bulk   



  Cartesian lattice vectors (Angstroms) :

       -2.504286    0.000000   10.443767
        1.252143   -2.168775   10.443767
        1.252143    2.168775   10.443767

  Cell parameters (Angstroms/Degrees):

  a =      10.7398    alpha =  23.3006
  b =      10.7398    beta  =  23.3006
  c =      10.7398    gamma =  23.3006

  Initial cell volume =         170.167643 Angs**3

  Temperature of configuration =  0.000     K 

  Pressure of configuration =         0.000 GPa 

  Fractional coordinates of asymmetric unit :

--------------------------------------------------------------------------------
   No.  Atomic       x           y          z         Charge      Occupancy
        Label      (Frac)      (Frac)     (Frac)        (e)         (Frac)  
--------------------------------------------------------------------------------
      1 Sb    c    0.396797    0.396797    0.396797      0.0000    1.000000    
      2 Sb    c    0.560979    0.560979    0.560979      0.0000    1.000000    
      3 Te1   c    0.000000    0.000000    0.000000     -0.0000    1.000000    
      4 Te2   c    0.784571    0.784571    0.784571     -0.0000    1.000000    
      5 Te2   c    0.215429    0.215429    0.215429     -0.0000    1.000000    
--------------------------------------------------------------------------------



********************************************************************************
*  Input for Configuration =  17                                               *
********************************************************************************

  Formula = Sb2Te3                                                      

  Number of irreducible atoms/shells =       5


  Total number atoms/shells =       5

  Dimensionality = 3               :  Bulk   



  Cartesian lattice vectors (Angstroms) :

       -2.504286    0.000000   10.443767
        1.252143   -2.168775   10.443767
        1.252143    2.168775   10.443767

  Cell parameters (Angstroms/Degrees):

  a =      10.7398    alpha =  23.3006
  b =      10.7398    beta  =  23.3006
  c =      10.7398    gamma =  23.3006

  Initial cell volume =         170.167643 Angs**3

  Temperature of configuration =  0.000     K 

  Pressure of configuration =         0.000 GPa 

  Fractional coordinates of asymmetric unit :

--------------------------------------------------------------------------------
   No.  Atomic       x           y          z         Charge      Occupancy
        Label      (Frac)      (Frac)     (Frac)        (e)         (Frac)  
--------------------------------------------------------------------------------
      1 Sb    c    0.396797    0.396797    0.396797      0.0000    1.000000    
      2 Sb    c    0.567011    0.567011    0.567011      0.0000    1.000000    
      3 Te1   c    0.000000    0.000000    0.000000     -0.0000    1.000000    
      4 Te2   c    0.784571    0.784571    0.784571     -0.0000    1.000000    
      5 Te2   c    0.215429    0.215429    0.215429     -0.0000    1.000000    
--------------------------------------------------------------------------------



********************************************************************************
*  Input for Configuration =  18                                               *
********************************************************************************

  Formula = Sb2Te3                                                      

  Number of irreducible atoms/shells =       5


  Total number atoms/shells =       5

  Dimensionality = 3               :  Bulk   



  Cartesian lattice vectors (Angstroms) :

       -2.504286    0.000000   10.443767
        1.252143   -2.168775   10.443767
        1.252143    2.168775   10.443767

  Cell parameters (Angstroms/Degrees):

  a =      10.7398    alpha =  23.3006
  b =      10.7398    beta  =  23.3006
  c =      10.7398    gamma =  23.3006

  Initial cell volume =         170.167643 Angs**3

  Temperature of configuration =  0.000     K 

  Pressure of configuration =         0.000 GPa 

  Fractional coordinates of asymmetric unit :

--------------------------------------------------------------------------------
   No.  Atomic       x           y          z         Charge      Occupancy
        Label      (Frac)      (Frac)     (Frac)        (e)         (Frac)  
--------------------------------------------------------------------------------
      1 Sb    c    0.396797    0.396797    0.396797      0.0000    1.000000    
      2 Sb    c    0.573043    0.573043    0.573043      0.0000    1.000000    
      3 Te1   c    0.000000    0.000000    0.000000     -0.0000    1.000000    
      4 Te2   c    0.784571    0.784571    0.784571     -0.0000    1.000000    
      5 Te2   c    0.215429    0.215429    0.215429     -0.0000    1.000000    
--------------------------------------------------------------------------------



********************************************************************************
*  Input for Configuration =  19                                               *
********************************************************************************

  Formula = Sb2Te3                                                      

  Number of irreducible atoms/shells =       5


  Total number atoms/shells =       5

  Dimensionality = 3               :  Bulk   



  Cartesian lattice vectors (Angstroms) :

       -2.504286    0.000000   10.443767
        1.252143   -2.168775   10.443767
        1.252143    2.168775   10.443767

  Cell parameters (Angstroms/Degrees):

  a =      10.7398    alpha =  23.3006
  b =      10.7398    beta  =  23.3006
  c =      10.7398    gamma =  23.3006

  Initial cell volume =         170.167643 Angs**3

  Temperature of configuration =  0.000     K 

  Pressure of configuration =         0.000 GPa 

  Fractional coordinates of asymmetric unit :

--------------------------------------------------------------------------------
   No.  Atomic       x           y          z         Charge      Occupancy
        Label      (Frac)      (Frac)     (Frac)        (e)         (Frac)  
--------------------------------------------------------------------------------
      1 Sb    c    0.396797    0.396797    0.396797      0.0000    1.000000    
      2 Sb    c    0.579075    0.579075    0.579075      0.0000    1.000000    
      3 Te1   c    0.000000    0.000000    0.000000     -0.0000    1.000000    
      4 Te2   c    0.784571    0.784571    0.784571     -0.0000    1.000000    
      5 Te2   c    0.215429    0.215429    0.215429     -0.0000    1.000000    
--------------------------------------------------------------------------------



********************************************************************************
*  Input for Configuration =  20                                               *
********************************************************************************

  Formula = Sb2Te3                                                      

  Number of irreducible atoms/shells =       5


  Total number atoms/shells =       5

  Dimensionality = 3               :  Bulk   



  Cartesian lattice vectors (Angstroms) :

       -2.504286    0.000000   10.443767
        1.252143   -2.168775   10.443767
        1.252143    2.168775   10.443767

  Cell parameters (Angstroms/Degrees):

  a =      10.7398    alpha =  23.3006
  b =      10.7398    beta  =  23.3006
  c =      10.7398    gamma =  23.3006

  Initial cell volume =         170.167643 Angs**3

  Temperature of configuration =  0.000     K 

  Pressure of configuration =         0.000 GPa 

  Fractional coordinates of asymmetric unit :

--------------------------------------------------------------------------------
   No.  Atomic       x           y          z         Charge      Occupancy
        Label      (Frac)      (Frac)     (Frac)        (e)         (Frac)  
--------------------------------------------------------------------------------
      1 Sb    c    0.396797    0.396797    0.396797      0.0000    1.000000    
      2 Sb    c    0.585107    0.585107    0.585107      0.0000    1.000000    
      3 Te1   c    0.000000    0.000000    0.000000     -0.0000    1.000000    
      4 Te2   c    0.784571    0.784571    0.784571     -0.0000    1.000000    
      5 Te2   c    0.215429    0.215429    0.215429     -0.0000    1.000000    
--------------------------------------------------------------------------------



********************************************************************************
*  Input for Configuration =  21                                               *
********************************************************************************

  Formula = Sb2Te3                                                      

  Number of irreducible atoms/shells =       5


  Total number atoms/shells =       5

  Dimensionality = 3               :  Bulk   



  Cartesian lattice vectors (Angstroms) :

       -2.504286    0.000000   10.443767
        1.252143   -2.168775   10.443767
        1.252143    2.168775   10.443767

  Cell parameters (Angstroms/Degrees):

  a =      10.7398    alpha =  23.3006
  b =      10.7398    beta  =  23.3006
  c =      10.7398    gamma =  23.3006

  Initial cell volume =         170.167643 Angs**3

  Temperature of configuration =  0.000     K 

  Pressure of configuration =         0.000 GPa 

  Fractional coordinates of asymmetric unit :

--------------------------------------------------------------------------------
   No.  Atomic       x           y          z         Charge      Occupancy
        Label      (Frac)      (Frac)     (Frac)        (e)         (Frac)  
--------------------------------------------------------------------------------
      1 Sb    c    0.396797    0.396797    0.396797      0.0000    1.000000    
      2 Sb    c    0.591139    0.591139    0.591139      0.0000    1.000000    
      3 Te1   c    0.000000    0.000000    0.000000     -0.0000    1.000000    
      4 Te2   c    0.784571    0.784571    0.784571     -0.0000    1.000000    
      5 Te2   c    0.215429    0.215429    0.215429     -0.0000    1.000000    
--------------------------------------------------------------------------------



********************************************************************************
*  Input for Configuration =  22                                               *
********************************************************************************

  Formula = Sb2Te3                                                      

  Number of irreducible atoms/shells =       5


  Total number atoms/shells =       5

  Dimensionality = 3               :  Bulk   



  Cartesian lattice vectors (Angstroms) :

       -2.504286    0.000000   10.443767
        1.252143   -2.168775   10.443767
        1.252143    2.168775   10.443767

  Cell parameters (Angstroms/Degrees):

  a =      10.7398    alpha =  23.3006
  b =      10.7398    beta  =  23.3006
  c =      10.7398    gamma =  23.3006

  Initial cell volume =         170.167643 Angs**3

  Temperature of configuration =  0.000     K 

  Pressure of configuration =         0.000 GPa 

  Fractional coordinates of asymmetric unit :

--------------------------------------------------------------------------------
   No.  Atomic       x           y          z         Charge      Occupancy
        Label      (Frac)      (Frac)     (Frac)        (e)         (Frac)  
--------------------------------------------------------------------------------
      1 Sb    c    0.396797    0.396797    0.396797      0.0000    1.000000    
      2 Sb    c    0.597171    0.597171    0.597171      0.0000    1.000000    
      3 Te1   c    0.000000    0.000000    0.000000     -0.0000    1.000000    
      4 Te2   c    0.784571    0.784571    0.784571     -0.0000    1.000000    
      5 Te2   c    0.215429    0.215429    0.215429     -0.0000    1.000000    
--------------------------------------------------------------------------------



********************************************************************************
*  Input for Configuration =  23                                               *
********************************************************************************

  Formula = Sb2Te3                                                      

  Number of irreducible atoms/shells =       5


  Total number atoms/shells =       5

  Dimensionality = 3               :  Bulk   



  Cartesian lattice vectors (Angstroms) :

       -2.504286    0.000000   10.443767
        1.252143   -2.168775   10.443767
        1.252143    2.168775   10.443767

  Cell parameters (Angstroms/Degrees):

  a =      10.7398    alpha =  23.3006
  b =      10.7398    beta  =  23.3006
  c =      10.7398    gamma =  23.3006

  Initial cell volume =         170.167643 Angs**3

  Temperature of configuration =  0.000     K 

  Pressure of configuration =         0.000 GPa 

  Fractional coordinates of asymmetric unit :

--------------------------------------------------------------------------------
   No.  Atomic       x           y          z         Charge      Occupancy
        Label      (Frac)      (Frac)     (Frac)        (e)         (Frac)  
--------------------------------------------------------------------------------
      1 Sb    c    0.396797    0.396797    0.396797      0.0000    1.000000    
      2 Sb    c    0.603203    0.603203    0.603203      0.0000    1.000000    
      3 Te1   c    0.000000    0.000000    0.000000     -0.0000    1.000000    
      4 Te2   c    0.784571    0.784571    0.784571     -0.0000    1.000000    
      5 Te2   c    0.215429    0.215429    0.215429     -0.0000    1.000000    
--------------------------------------------------------------------------------



********************************************************************************
*  Input for Configuration =  24                                               *
********************************************************************************

  Formula = Sb2Te3                                                      

  Number of irreducible atoms/shells =       5


  Total number atoms/shells =       5

  Dimensionality = 3               :  Bulk   



  Cartesian lattice vectors (Angstroms) :

       -2.504286    0.000000   10.443767
        1.252143   -2.168775   10.443767
        1.252143    2.168775   10.443767

  Cell parameters (Angstroms/Degrees):

  a =      10.7398    alpha =  23.3006
  b =      10.7398    beta  =  23.3006
  c =      10.7398    gamma =  23.3006

  Initial cell volume =         170.167643 Angs**3

  Temperature of configuration =  0.000     K 

  Pressure of configuration =         0.000 GPa 

  Fractional coordinates of asymmetric unit :

--------------------------------------------------------------------------------
   No.  Atomic       x           y          z         Charge      Occupancy
        Label      (Frac)      (Frac)     (Frac)        (e)         (Frac)  
--------------------------------------------------------------------------------
      1 Sb    c    0.396797    0.396797    0.396797      0.0000    1.000000    
      2 Sb    c    0.609235    0.609235    0.609235      0.0000    1.000000    
      3 Te1   c    0.000000    0.000000    0.000000     -0.0000    1.000000    
      4 Te2   c    0.784571    0.784571    0.784571     -0.0000    1.000000    
      5 Te2   c    0.215429    0.215429    0.215429     -0.0000    1.000000    
--------------------------------------------------------------------------------



********************************************************************************
*  Input for Configuration =  25                                               *
********************************************************************************

  Formula = Sb2Te3                                                      

  Number of irreducible atoms/shells =       5


  Total number atoms/shells =       5

  Dimensionality = 3               :  Bulk   



  Cartesian lattice vectors (Angstroms) :

       -2.504286    0.000000   10.443767
        1.252143   -2.168775   10.443767
        1.252143    2.168775   10.443767

  Cell parameters (Angstroms/Degrees):

  a =      10.7398    alpha =  23.3006
  b =      10.7398    beta  =  23.3006
  c =      10.7398    gamma =  23.3006

  Initial cell volume =         170.167643 Angs**3

  Temperature of configuration =  0.000     K 

  Pressure of configuration =         0.000 GPa 

  Fractional coordinates of asymmetric unit :

--------------------------------------------------------------------------------
   No.  Atomic       x           y          z         Charge      Occupancy
        Label      (Frac)      (Frac)     (Frac)        (e)         (Frac)  
--------------------------------------------------------------------------------
      1 Sb    c    0.396797    0.396797    0.396797      0.0000    1.000000    
      2 Sb    c    0.615267    0.615267    0.615267      0.0000    1.000000    
      3 Te1   c    0.000000    0.000000    0.000000     -0.0000    1.000000    
      4 Te2   c    0.784571    0.784571    0.784571     -0.0000    1.000000    
      5 Te2   c    0.215429    0.215429    0.215429     -0.0000    1.000000    
--------------------------------------------------------------------------------



********************************************************************************
*  Input for Configuration =  26                                               *
********************************************************************************

  Formula = Sb2Te3                                                      

  Number of irreducible atoms/shells =       5


  Total number atoms/shells =       5

  Dimensionality = 3               :  Bulk   



  Cartesian lattice vectors (Angstroms) :

       -2.504286    0.000000   10.443767
        1.252143   -2.168775   10.443767
        1.252143    2.168775   10.443767

  Cell parameters (Angstroms/Degrees):

  a =      10.7398    alpha =  23.3006
  b =      10.7398    beta  =  23.3006
  c =      10.7398    gamma =  23.3006

  Initial cell volume =         170.167643 Angs**3

  Temperature of configuration =  0.000     K 

  Pressure of configuration =         0.000 GPa 

  Fractional coordinates of asymmetric unit :

--------------------------------------------------------------------------------
   No.  Atomic       x           y          z         Charge      Occupancy
        Label      (Frac)      (Frac)     (Frac)        (e)         (Frac)  
--------------------------------------------------------------------------------
      1 Sb    c    0.396797    0.396797    0.396797      0.0000    1.000000    
      2 Sb    c    0.621300    0.621300    0.621300      0.0000    1.000000    
      3 Te1   c    0.000000    0.000000    0.000000     -0.0000    1.000000    
      4 Te2   c    0.784571    0.784571    0.784571     -0.0000    1.000000    
      5 Te2   c    0.215429    0.215429    0.215429     -0.0000    1.000000    
--------------------------------------------------------------------------------



********************************************************************************
*  Input for Configuration =  27                                               *
********************************************************************************

  Formula = Sb2Te3                                                      

  Number of irreducible atoms/shells =       5


  Total number atoms/shells =       5

  Dimensionality = 3               :  Bulk   



  Cartesian lattice vectors (Angstroms) :

       -2.504286    0.000000   10.443767
        1.252143   -2.168775   10.443767
        1.252143    2.168775   10.443767

  Cell parameters (Angstroms/Degrees):

  a =      10.7398    alpha =  23.3006
  b =      10.7398    beta  =  23.3006
  c =      10.7398    gamma =  23.3006

  Initial cell volume =         170.167643 Angs**3

  Temperature of configuration =  0.000     K 

  Pressure of configuration =         0.000 GPa 

  Fractional coordinates of asymmetric unit :

--------------------------------------------------------------------------------
   No.  Atomic       x           y          z         Charge      Occupancy
        Label      (Frac)      (Frac)     (Frac)        (e)         (Frac)  
--------------------------------------------------------------------------------
      1 Sb    c    0.396797    0.396797    0.396797      0.0000    1.000000    
      2 Sb    c    0.627332    0.627332    0.627332      0.0000    1.000000    
      3 Te1   c    0.000000    0.000000    0.000000     -0.0000    1.000000    
      4 Te2   c    0.784571    0.784571    0.784571     -0.0000    1.000000    
      5 Te2   c    0.215429    0.215429    0.215429     -0.0000    1.000000    
--------------------------------------------------------------------------------



********************************************************************************
*  Input for Configuration =  28                                               *
********************************************************************************

  Formula = Sb2Te3                                                      

  Number of irreducible atoms/shells =       5


  Total number atoms/shells =       5

  Dimensionality = 3               :  Bulk   



  Cartesian lattice vectors (Angstroms) :

       -2.504286    0.000000   10.443767
        1.252143   -2.168775   10.443767
        1.252143    2.168775   10.443767

  Cell parameters (Angstroms/Degrees):

  a =      10.7398    alpha =  23.3006
  b =      10.7398    beta  =  23.3006
  c =      10.7398    gamma =  23.3006

  Initial cell volume =         170.167643 Angs**3

  Temperature of configuration =  0.000     K 

  Pressure of configuration =         0.000 GPa 

  Fractional coordinates of asymmetric unit :

--------------------------------------------------------------------------------
   No.  Atomic       x           y          z         Charge      Occupancy
        Label      (Frac)      (Frac)     (Frac)        (e)         (Frac)  
--------------------------------------------------------------------------------
      1 Sb    c    0.396797    0.396797    0.396797      0.0000    1.000000    
      2 Sb    c    0.633364    0.633364    0.633364      0.0000    1.000000    
      3 Te1   c    0.000000    0.000000    0.000000     -0.0000    1.000000    
      4 Te2   c    0.784571    0.784571    0.784571     -0.0000    1.000000    
      5 Te2   c    0.215429    0.215429    0.215429     -0.0000    1.000000    
--------------------------------------------------------------------------------



********************************************************************************
*  Input for Configuration =  29                                               *
********************************************************************************

  Formula = Sb2Te3                                                      

  Number of irreducible atoms/shells =       5


  Total number atoms/shells =       5

  Dimensionality = 3               :  Bulk   



  Cartesian lattice vectors (Angstroms) :

       -2.504286    0.000000   10.443767
        1.252143   -2.168775   10.443767
        1.252143    2.168775   10.443767

  Cell parameters (Angstroms/Degrees):

  a =      10.7398    alpha =  23.3006
  b =      10.7398    beta  =  23.3006
  c =      10.7398    gamma =  23.3006

  Initial cell volume =         170.167643 Angs**3

  Temperature of configuration =  0.000     K 

  Pressure of configuration =         0.000 GPa 

  Fractional coordinates of asymmetric unit :

--------------------------------------------------------------------------------
   No.  Atomic       x           y          z         Charge      Occupancy
        Label      (Frac)      (Frac)     (Frac)        (e)         (Frac)  
--------------------------------------------------------------------------------
      1 Sb    c    0.396797    0.396797    0.396797      0.0000    1.000000    
      2 Sb    c    0.639396    0.639396    0.639396      0.0000    1.000000    
      3 Te1   c    0.000000    0.000000    0.000000     -0.0000    1.000000    
      4 Te2   c    0.784571    0.784571    0.784571     -0.0000    1.000000    
      5 Te2   c    0.215429    0.215429    0.215429     -0.0000    1.000000    
--------------------------------------------------------------------------------



********************************************************************************
*  Input for Configuration =  30                                               *
********************************************************************************

  Formula = Sb2Te3                                                      

  Number of irreducible atoms/shells =       5


  Total number atoms/shells =       5

  Dimensionality = 3               :  Bulk   



  Cartesian lattice vectors (Angstroms) :

       -2.504286    0.000000   10.443767
        1.252143   -2.168775   10.443767
        1.252143    2.168775   10.443767

  Cell parameters (Angstroms/Degrees):

  a =      10.7398    alpha =  23.3006
  b =      10.7398    beta  =  23.3006
  c =      10.7398    gamma =  23.3006

  Initial cell volume =         170.167643 Angs**3

  Temperature of configuration =  0.000     K 

  Pressure of configuration =         0.000 GPa 

  Fractional coordinates of asymmetric unit :

--------------------------------------------------------------------------------
   No.  Atomic       x           y          z         Charge      Occupancy
        Label      (Frac)      (Frac)     (Frac)        (e)         (Frac)  
--------------------------------------------------------------------------------
      1 Sb    c    0.396797    0.396797    0.396797      0.0000    1.000000    
      2 Sb    c    0.645428    0.645428    0.645428      0.0000    1.000000    
      3 Te1   c    0.000000    0.000000    0.000000     -0.0000    1.000000    
      4 Te2   c    0.784571    0.784571    0.784571     -0.0000    1.000000    
      5 Te2   c    0.215429    0.215429    0.215429     -0.0000    1.000000    
--------------------------------------------------------------------------------



********************************************************************************
*  Input for Configuration =  31                                               *
********************************************************************************

  Formula = Sb2Te3                                                      

  Number of irreducible atoms/shells =       5


  Total number atoms/shells =       5

  Dimensionality = 3               :  Bulk   



  Cartesian lattice vectors (Angstroms) :

       -2.504286    0.000000   10.443767
        1.252143   -2.168775   10.443767
        1.252143    2.168775   10.443767

  Cell parameters (Angstroms/Degrees):

  a =      10.7398    alpha =  23.3006
  b =      10.7398    beta  =  23.3006
  c =      10.7398    gamma =  23.3006

  Initial cell volume =         170.167643 Angs**3

  Temperature of configuration =  0.000     K 

  Pressure of configuration =         0.000 GPa 

  Fractional coordinates of asymmetric unit :

--------------------------------------------------------------------------------
   No.  Atomic       x           y          z         Charge      Occupancy
        Label      (Frac)      (Frac)     (Frac)        (e)         (Frac)  
--------------------------------------------------------------------------------
      1 Sb    c    0.396797    0.396797    0.396797      0.0000    1.000000    
      2 Sb    c    0.603203    0.603203    0.603203      0.0000    1.000000    
      3 Te1   c    0.930000    0.930000    0.930000     -0.0000    1.000000    
      4 Te2   c    0.784571    0.784571    0.784571     -0.0000    1.000000    
      5 Te2   c    0.215429    0.215429    0.215429     -0.0000    1.000000    
--------------------------------------------------------------------------------



********************************************************************************
*  Input for Configuration =  32                                               *
********************************************************************************

  Formula = Sb2Te3                                                      

  Number of irreducible atoms/shells =       5


  Total number atoms/shells =       5

  Dimensionality = 3               :  Bulk   



  Cartesian lattice vectors (Angstroms) :

       -2.504286    0.000000   10.443767
        1.252143   -2.168775   10.443767
        1.252143    2.168775   10.443767

  Cell parameters (Angstroms/Degrees):

  a =      10.7398    alpha =  23.3006
  b =      10.7398    beta  =  23.3006
  c =      10.7398    gamma =  23.3006

  Initial cell volume =         170.167643 Angs**3

  Temperature of configuration =  0.000     K 

  Pressure of configuration =         0.000 GPa 

  Fractional coordinates of asymmetric unit :

--------------------------------------------------------------------------------
   No.  Atomic       x           y          z         Charge      Occupancy
        Label      (Frac)      (Frac)     (Frac)        (e)         (Frac)  
--------------------------------------------------------------------------------
      1 Sb    c    0.396797    0.396797    0.396797      0.0000    1.000000    
      2 Sb    c    0.603203    0.603203    0.603203      0.0000    1.000000    
      3 Te1   c    0.940000    0.940000    0.940000     -0.0000    1.000000    
      4 Te2   c    0.784571    0.784571    0.784571     -0.0000    1.000000    
      5 Te2   c    0.215429    0.215429    0.215429     -0.0000    1.000000    
--------------------------------------------------------------------------------



********************************************************************************
*  Input for Configuration =  33                                               *
********************************************************************************

  Formula = Sb2Te3                                                      

  Number of irreducible atoms/shells =       5


  Total number atoms/shells =       5

  Dimensionality = 3               :  Bulk   



  Cartesian lattice vectors (Angstroms) :

       -2.504286    0.000000   10.443767
        1.252143   -2.168775   10.443767
        1.252143    2.168775   10.443767

  Cell parameters (Angstroms/Degrees):

  a =      10.7398    alpha =  23.3006
  b =      10.7398    beta  =  23.3006
  c =      10.7398    gamma =  23.3006

  Initial cell volume =         170.167643 Angs**3

  Temperature of configuration =  0.000     K 

  Pressure of configuration =         0.000 GPa 

  Fractional coordinates of asymmetric unit :

--------------------------------------------------------------------------------
   No.  Atomic       x           y          z         Charge      Occupancy
        Label      (Frac)      (Frac)     (Frac)        (e)         (Frac)  
--------------------------------------------------------------------------------
      1 Sb    c    0.396797    0.396797    0.396797      0.0000    1.000000    
      2 Sb    c    0.603203    0.603203    0.603203      0.0000    1.000000    
      3 Te1   c    0.950000    0.950000    0.950000     -0.0000    1.000000    
      4 Te2   c    0.784571    0.784571    0.784571     -0.0000    1.000000    
      5 Te2   c    0.215429    0.215429    0.215429     -0.0000    1.000000    
--------------------------------------------------------------------------------



********************************************************************************
*  Input for Configuration =  34                                               *
********************************************************************************

  Formula = Sb2Te3                                                      

  Number of irreducible atoms/shells =       5


  Total number atoms/shells =       5

  Dimensionality = 3               :  Bulk   



  Cartesian lattice vectors (Angstroms) :

       -2.504286    0.000000   10.443767
        1.252143   -2.168775   10.443767
        1.252143    2.168775   10.443767

  Cell parameters (Angstroms/Degrees):

  a =      10.7398    alpha =  23.3006
  b =      10.7398    beta  =  23.3006
  c =      10.7398    gamma =  23.3006

  Initial cell volume =         170.167643 Angs**3

  Temperature of configuration =  0.000     K 

  Pressure of configuration =         0.000 GPa 

  Fractional coordinates of asymmetric unit :

--------------------------------------------------------------------------------
   No.  Atomic       x           y          z         Charge      Occupancy
        Label      (Frac)      (Frac)     (Frac)        (e)         (Frac)  
--------------------------------------------------------------------------------
      1 Sb    c    0.396797    0.396797    0.396797      0.0000    1.000000    
      2 Sb    c    0.603203    0.603203    0.603203      0.0000    1.000000    
      3 Te1   c    0.960000    0.960000    0.960000     -0.0000    1.000000    
      4 Te2   c    0.784571    0.784571    0.784571     -0.0000    1.000000    
      5 Te2   c    0.215429    0.215429    0.215429     -0.0000    1.000000    
--------------------------------------------------------------------------------



********************************************************************************
*  Input for Configuration =  35                                               *
********************************************************************************

  Formula = Sb2Te3                                                      

  Number of irreducible atoms/shells =       5


  Total number atoms/shells =       5

  Dimensionality = 3               :  Bulk   



  Cartesian lattice vectors (Angstroms) :

       -2.504286    0.000000   10.443767
        1.252143   -2.168775   10.443767
        1.252143    2.168775   10.443767

  Cell parameters (Angstroms/Degrees):

  a =      10.7398    alpha =  23.3006
  b =      10.7398    beta  =  23.3006
  c =      10.7398    gamma =  23.3006

  Initial cell volume =         170.167643 Angs**3

  Temperature of configuration =  0.000     K 

  Pressure of configuration =         0.000 GPa 

  Fractional coordinates of asymmetric unit :

--------------------------------------------------------------------------------
   No.  Atomic       x           y          z         Charge      Occupancy
        Label      (Frac)      (Frac)     (Frac)        (e)         (Frac)  
--------------------------------------------------------------------------------
      1 Sb    c    0.396797    0.396797    0.396797      0.0000    1.000000    
      2 Sb    c    0.603203    0.603203    0.603203      0.0000    1.000000    
      3 Te1   c    0.970000    0.970000    0.970000     -0.0000    1.000000    
      4 Te2   c    0.784571    0.784571    0.784571     -0.0000    1.000000    
      5 Te2   c    0.215429    0.215429    0.215429     -0.0000    1.000000    
--------------------------------------------------------------------------------



********************************************************************************
*  Input for Configuration =  36                                               *
********************************************************************************

  Formula = Sb2Te3                                                      

  Number of irreducible atoms/shells =       5


  Total number atoms/shells =       5

  Dimensionality = 3               :  Bulk   



  Cartesian lattice vectors (Angstroms) :

       -2.504286    0.000000   10.443767
        1.252143   -2.168775   10.443767
        1.252143    2.168775   10.443767

  Cell parameters (Angstroms/Degrees):

  a =      10.7398    alpha =  23.3006
  b =      10.7398    beta  =  23.3006
  c =      10.7398    gamma =  23.3006

  Initial cell volume =         170.167643 Angs**3

  Temperature of configuration =  0.000     K 

  Pressure of configuration =         0.000 GPa 

  Fractional coordinates of asymmetric unit :

--------------------------------------------------------------------------------
   No.  Atomic       x           y          z         Charge      Occupancy
        Label      (Frac)      (Frac)     (Frac)        (e)         (Frac)  
--------------------------------------------------------------------------------
      1 Sb    c    0.396797    0.396797    0.396797      0.0000    1.000000    
      2 Sb    c    0.603203    0.603203    0.603203      0.0000    1.000000    
      3 Te1   c    0.980000    0.980000    0.980000     -0.0000    1.000000    
      4 Te2   c    0.784571    0.784571    0.784571     -0.0000    1.000000    
      5 Te2   c    0.215429    0.215429    0.215429     -0.0000    1.000000    
--------------------------------------------------------------------------------



********************************************************************************
*  Input for Configuration =  37                                               *
********************************************************************************

  Formula = Sb2Te3                                                      

  Number of irreducible atoms/shells =       5


  Total number atoms/shells =       5

  Dimensionality = 3               :  Bulk   



  Cartesian lattice vectors (Angstroms) :

       -2.504286    0.000000   10.443767
        1.252143   -2.168775   10.443767
        1.252143    2.168775   10.443767

  Cell parameters (Angstroms/Degrees):

  a =      10.7398    alpha =  23.3006
  b =      10.7398    beta  =  23.3006
  c =      10.7398    gamma =  23.3006

  Initial cell volume =         170.167643 Angs**3

  Temperature of configuration =  0.000     K 

  Pressure of configuration =         0.000 GPa 

  Fractional coordinates of asymmetric unit :

--------------------------------------------------------------------------------
   No.  Atomic       x           y          z         Charge      Occupancy
        Label      (Frac)      (Frac)     (Frac)        (e)         (Frac)  
--------------------------------------------------------------------------------
      1 Sb    c    0.396797    0.396797    0.396797      0.0000    1.000000    
      2 Sb    c    0.603203    0.603203    0.603203      0.0000    1.000000    
      3 Te1   c    0.990000    0.990000    0.990000     -0.0000    1.000000    
      4 Te2   c    0.784571    0.784571    0.784571     -0.0000    1.000000    
      5 Te2   c    0.215429    0.215429    0.215429     -0.0000    1.000000    
--------------------------------------------------------------------------------



********************************************************************************
*  Input for Configuration =  38                                               *
********************************************************************************

  Formula = Sb2Te3                                                      

  Number of irreducible atoms/shells =       5


  Total number atoms/shells =       5

  Dimensionality = 3               :  Bulk   



  Cartesian lattice vectors (Angstroms) :

       -2.504286    0.000000   10.443767
        1.252143   -2.168775   10.443767
        1.252143    2.168775   10.443767

  Cell parameters (Angstroms/Degrees):

  a =      10.7398    alpha =  23.3006
  b =      10.7398    beta  =  23.3006
  c =      10.7398    gamma =  23.3006

  Initial cell volume =         170.167643 Angs**3

  Temperature of configuration =  0.000     K 

  Pressure of configuration =         0.000 GPa 

  Fractional coordinates of asymmetric unit :

--------------------------------------------------------------------------------
   No.  Atomic       x           y          z         Charge      Occupancy
        Label      (Frac)      (Frac)     (Frac)        (e)         (Frac)  
--------------------------------------------------------------------------------
      1 Sb    c    0.396797    0.396797    0.396797      0.0000    1.000000    
      2 Sb    c    0.603203    0.603203    0.603203      0.0000    1.000000    
      3 Te1   c    0.000000    0.000000    0.000000     -0.0000    1.000000    
      4 Te2   c    0.784571    0.784571    0.784571     -0.0000    1.000000    
      5 Te2   c    0.215429    0.215429    0.215429     -0.0000    1.000000    
--------------------------------------------------------------------------------



********************************************************************************
*  Input for Configuration =  39                                               *
********************************************************************************

  Formula = Sb2Te3                                                      

  Number of irreducible atoms/shells =       5


  Total number atoms/shells =       5

  Dimensionality = 3               :  Bulk   



  Cartesian lattice vectors (Angstroms) :

       -2.504286    0.000000   10.443767
        1.252143   -2.168775   10.443767
        1.252143    2.168775   10.443767

  Cell parameters (Angstroms/Degrees):

  a =      10.7398    alpha =  23.3006
  b =      10.7398    beta  =  23.3006
  c =      10.7398    gamma =  23.3006

  Initial cell volume =         170.167643 Angs**3

  Temperature of configuration =  0.000     K 

  Pressure of configuration =         0.000 GPa 

  Fractional coordinates of asymmetric unit :

--------------------------------------------------------------------------------
   No.  Atomic       x           y          z         Charge      Occupancy
        Label      (Frac)      (Frac)     (Frac)        (e)         (Frac)  
--------------------------------------------------------------------------------
      1 Sb    c    0.396797    0.396797    0.396797      0.0000    1.000000    
      2 Sb    c    0.603203    0.603203    0.603203      0.0000    1.000000    
      3 Te1   c    0.010000    0.010000    0.010000     -0.0000    1.000000    
      4 Te2   c    0.784571    0.784571    0.784571     -0.0000    1.000000    
      5 Te2   c    0.215429    0.215429    0.215429     -0.0000    1.000000    
--------------------------------------------------------------------------------



********************************************************************************
*  Input for Configuration =  40                                               *
********************************************************************************

  Formula = Sb2Te3                                                      

  Number of irreducible atoms/shells =       5


  Total number atoms/shells =       5

  Dimensionality = 3               :  Bulk   



  Cartesian lattice vectors (Angstroms) :

       -2.504286    0.000000   10.443767
        1.252143   -2.168775   10.443767
        1.252143    2.168775   10.443767

  Cell parameters (Angstroms/Degrees):

  a =      10.7398    alpha =  23.3006
  b =      10.7398    beta  =  23.3006
  c =      10.7398    gamma =  23.3006

  Initial cell volume =         170.167643 Angs**3

  Temperature of configuration =  0.000     K 

  Pressure of configuration =         0.000 GPa 

  Fractional coordinates of asymmetric unit :

--------------------------------------------------------------------------------
   No.  Atomic       x           y          z         Charge      Occupancy
        Label      (Frac)      (Frac)     (Frac)        (e)         (Frac)  
--------------------------------------------------------------------------------
      1 Sb    c    0.396797    0.396797    0.396797      0.0000    1.000000    
      2 Sb    c    0.603203    0.603203    0.603203      0.0000    1.000000    
      3 Te1   c    0.020000    0.020000    0.020000     -0.0000    1.000000    
      4 Te2   c    0.784571    0.784571    0.784571     -0.0000    1.000000    
      5 Te2   c    0.215429    0.215429    0.215429     -0.0000    1.000000    
--------------------------------------------------------------------------------



********************************************************************************
*  Input for Configuration =  41                                               *
********************************************************************************

  Formula = Sb2Te3                                                      

  Number of irreducible atoms/shells =       5


  Total number atoms/shells =       5

  Dimensionality = 3               :  Bulk   



  Cartesian lattice vectors (Angstroms) :

       -2.504286    0.000000   10.443767
        1.252143   -2.168775   10.443767
        1.252143    2.168775   10.443767

  Cell parameters (Angstroms/Degrees):

  a =      10.7398    alpha =  23.3006
  b =      10.7398    beta  =  23.3006
  c =      10.7398    gamma =  23.3006

  Initial cell volume =         170.167643 Angs**3

  Temperature of configuration =  0.000     K 

  Pressure of configuration =         0.000 GPa 

  Fractional coordinates of asymmetric unit :

--------------------------------------------------------------------------------
   No.  Atomic       x           y          z         Charge      Occupancy
        Label      (Frac)      (Frac)     (Frac)        (e)         (Frac)  
--------------------------------------------------------------------------------
      1 Sb    c    0.396797    0.396797    0.396797      0.0000    1.000000    
      2 Sb    c    0.603203    0.603203    0.603203      0.0000    1.000000    
      3 Te1   c    0.030000    0.030000    0.030000     -0.0000    1.000000    
      4 Te2   c    0.784571    0.784571    0.784571     -0.0000    1.000000    
      5 Te2   c    0.215429    0.215429    0.215429     -0.0000    1.000000    
--------------------------------------------------------------------------------



********************************************************************************
*  Input for Configuration =  42                                               *
********************************************************************************

  Formula = Sb2Te3                                                      

  Number of irreducible atoms/shells =       5


  Total number atoms/shells =       5

  Dimensionality = 3               :  Bulk   



  Cartesian lattice vectors (Angstroms) :

       -2.504286    0.000000   10.443767
        1.252143   -2.168775   10.443767
        1.252143    2.168775   10.443767

  Cell parameters (Angstroms/Degrees):

  a =      10.7398    alpha =  23.3006
  b =      10.7398    beta  =  23.3006
  c =      10.7398    gamma =  23.3006

  Initial cell volume =         170.167643 Angs**3

  Temperature of configuration =  0.000     K 

  Pressure of configuration =         0.000 GPa 

  Fractional coordinates of asymmetric unit :

--------------------------------------------------------------------------------
   No.  Atomic       x           y          z         Charge      Occupancy
        Label      (Frac)      (Frac)     (Frac)        (e)         (Frac)  
--------------------------------------------------------------------------------
      1 Sb    c    0.396797    0.396797    0.396797      0.0000    1.000000    
      2 Sb    c    0.603203    0.603203    0.603203      0.0000    1.000000    
      3 Te1   c    0.040000    0.040000    0.040000     -0.0000    1.000000    
      4 Te2   c    0.784571    0.784571    0.784571     -0.0000    1.000000    
      5 Te2   c    0.215429    0.215429    0.215429     -0.0000    1.000000    
--------------------------------------------------------------------------------



********************************************************************************
*  Input for Configuration =  43                                               *
********************************************************************************

  Formula = Sb2Te3                                                      

  Number of irreducible atoms/shells =       5


  Total number atoms/shells =       5

  Dimensionality = 3               :  Bulk   



  Cartesian lattice vectors (Angstroms) :

       -2.504286    0.000000   10.443767
        1.252143   -2.168775   10.443767
        1.252143    2.168775   10.443767

  Cell parameters (Angstroms/Degrees):

  a =      10.7398    alpha =  23.3006
  b =      10.7398    beta  =  23.3006
  c =      10.7398    gamma =  23.3006

  Initial cell volume =         170.167643 Angs**3

  Temperature of configuration =  0.000     K 

  Pressure of configuration =         0.000 GPa 

  Fractional coordinates of asymmetric unit :

--------------------------------------------------------------------------------
   No.  Atomic       x           y          z         Charge      Occupancy
        Label      (Frac)      (Frac)     (Frac)        (e)         (Frac)  
--------------------------------------------------------------------------------
      1 Sb    c    0.396797    0.396797    0.396797      0.0000    1.000000    
      2 Sb    c    0.603203    0.603203    0.603203      0.0000    1.000000    
      3 Te1   c    0.050000    0.050000    0.050000     -0.0000    1.000000    
      4 Te2   c    0.784571    0.784571    0.784571     -0.0000    1.000000    
      5 Te2   c    0.215429    0.215429    0.215429     -0.0000    1.000000    
--------------------------------------------------------------------------------



********************************************************************************
*  Input for Configuration =  44                                               *
********************************************************************************

  Formula = Sb2Te3                                                      

  Number of irreducible atoms/shells =       5


  Total number atoms/shells =       5

  Dimensionality = 3               :  Bulk   



  Cartesian lattice vectors (Angstroms) :

       -2.504286    0.000000   10.443767
        1.252143   -2.168775   10.443767
        1.252143    2.168775   10.443767

  Cell parameters (Angstroms/Degrees):

  a =      10.7398    alpha =  23.3006
  b =      10.7398    beta  =  23.3006
  c =      10.7398    gamma =  23.3006

  Initial cell volume =         170.167643 Angs**3

  Temperature of configuration =  0.000     K 

  Pressure of configuration =         0.000 GPa 

  Fractional coordinates of asymmetric unit :

--------------------------------------------------------------------------------
   No.  Atomic       x           y          z         Charge      Occupancy
        Label      (Frac)      (Frac)     (Frac)        (e)         (Frac)  
--------------------------------------------------------------------------------
      1 Sb    c    0.396797    0.396797    0.396797      0.0000    1.000000    
      2 Sb    c    0.603203    0.603203    0.603203      0.0000    1.000000    
      3 Te1   c    0.060000    0.060000    0.060000     -0.0000    1.000000    
      4 Te2   c    0.784571    0.784571    0.784571     -0.0000    1.000000    
      5 Te2   c    0.215429    0.215429    0.215429     -0.0000    1.000000    
--------------------------------------------------------------------------------



********************************************************************************
*  Input for Configuration =  45                                               *
********************************************************************************

  Formula = Sb2Te3                                                      

  Number of irreducible atoms/shells =       5


  Total number atoms/shells =       5

  Dimensionality = 3               :  Bulk   



  Cartesian lattice vectors (Angstroms) :

       -2.504286    0.000000   10.443767
        1.252143   -2.168775   10.443767
        1.252143    2.168775   10.443767

[...]



!!!!!!!!!!!!!!!!!!!!!!!!!!!!!!!!!!!!!!!!!!!!!!!!!!!!!!!!!!!!!!!!!!!!!!!!!!!!!!!!
!! WARNING : No variables to optimise - single point performed
!!!!!!!!!!!!!!!!!!!!!!!!!!!!!!!!!!!!!!!!!!!!!!!!!!!!!!!!!!!!!!!!!!!!!!!!!!!!!!!!


  Components of energy : 

--------------------------------------------------------------------------------
  Interatomic potentials     =          -2.18801196 eV
  Monopole - monopole (real) =           0.06638735 eV
  Monopole - monopole (recip)=          -0.03788526 eV
  Monopole - monopole (total)=           0.02850208 eV
  Energy shift               =         -15.67265685 eV
--------------------------------------------------------------------------------
  Total lattice energy       =         -17.83216672 eV
--------------------------------------------------------------------------------
  Total lattice energy       =           -1720.5315 kJ/(mole unit cells)
--------------------------------------------------------------------------------

  Born effective charge tensors : 

-------------------------------------------------------------------------------
  Atom             x           y             z
-------------------------------------------------------------------------------
   1 Sb    x      -0.0410      0.0000      0.0000
           y       0.0000     -0.0410      0.0000
           z       0.0000      0.0000     -0.0410
-------------------------------------------------------------------------------
   2 Sb    x      -0.0410      0.0000      0.0000
           y       0.0000     -0.0410      0.0000
           z       0.0000      0.0000     -0.0410
-------------------------------------------------------------------------------
   3 Te1   x      -0.4038      0.0000      0.0000
           y       0.0000     -0.4038      0.0000
           z       0.0000      0.0000     -0.4038
-------------------------------------------------------------------------------
   4 Te2   x       0.2429      0.0000      0.0000
           y       0.0000      0.2429      0.0000
           z       0.0000      0.0000      0.2429
-------------------------------------------------------------------------------
   5 Te2   x       0.2429      0.0000      0.0000
           y       0.0000      0.2429      0.0000
           z       0.0000      0.0000      0.2429
-------------------------------------------------------------------------------




  Elastic Constant Matrix: (Units=GPa)

-------------------------------------------------------------------------------
  Indices      1         2         3         4         5         6    
-------------------------------------------------------------------------------
       1     40.6716   11.4213   18.0799   -6.1054   -1.2139   -2.0446
       2     11.4213   30.1607   11.3112    8.3059   11.8865    4.3079
       3     18.0799   11.3112   23.0054   -1.7450   -8.4635    1.4575
       4     -6.1054    8.3059   -1.7450   14.1116    2.2494   12.3567
       5     -1.2139   11.8865   -8.4635    2.2494   24.5575   -6.0085
       6     -2.0446    4.3079    1.4575   12.3567   -6.0085   18.0047
-------------------------------------------------------------------------------


  Elastic Compliance Matrix: (Units=1/GPa)

-------------------------------------------------------------------------------
  Indices      1         2         3         4         5         6    
-------------------------------------------------------------------------------
       1    0.047522 -0.007290 -0.034697  0.050260 -0.018173 -0.030609
       2   -0.007290  0.126149 -0.093929 -0.072147 -0.087980 -0.003253
       3   -0.034697 -0.093929  0.154113  0.020864  0.101193  0.025509
       4    0.050260 -0.072147  0.020864  0.348269 -0.044186 -0.232483
       5   -0.018173 -0.087980  0.101193 -0.044186  0.143073  0.088866
       6   -0.030609 -0.003253  0.025509 -0.232483  0.088866  0.239990
-------------------------------------------------------------------------------

 Mechanical properties :

-------------------------------------------------------------------------------
  Convention :                    Reuss         Voigt         Hill
-------------------------------------------------------------------------------
  Bulk  Modulus (GPa)     =      17.87220      19.49584      18.68402
  Shear Modulus (GPa)     =       3.70480      14.86976       9.28728
-------------------------------------------------------------------------------
  Velocity S-wave (km/s)  =       2.46201       4.93241       3.89809
  Velocity P-wave (km/s)  =       6.10926       8.02096       7.12947
-------------------------------------------------------------------------------
  Compressibility (1/GPa) =    0.05595281
-------------------------------------------------------------------------------
  Stress axis :                     x             y             z
-------------------------------------------------------------------------------
  Youngs Moduli (GPa)     =      21.04280       7.92712       6.48873
-------------------------------------------------------------------------------
  Poissons Ratio (x)      =                     0.05779       0.22514
  Poissons Ratio (y)      =       0.15341                     0.60948
  Poissons Ratio (z)      =       0.73012       0.74458
-------------------------------------------------------------------------------


  Piezoelectric Strain Matrix: (Units=C/m**2)

-------------------------------------------------------------------------------
  Indices      1         2         3         4         5         6    
-------------------------------------------------------------------------------
       x    -0.00000  -0.00000  -0.00000   0.00000   0.00000   0.00000
       y     0.00000  -0.00000  -0.00000  -0.00000   0.00000  -0.00000
       z     0.00000  -0.00000   0.00000  -0.00000  -0.00000   0.00000
-------------------------------------------------------------------------------


  Piezoelectric Stress Matrix: (Units=10**-11 C/N)

-------------------------------------------------------------------------------
  Indices      1         2         3         4         5         6    
-------------------------------------------------------------------------------
       x    -0.00000  -0.00000  -0.00000   0.00000   0.00000   0.00000
       y     0.00000  -0.00000  -0.00000  -0.00000   0.00000  -0.00000
       z     0.00000  -0.00000   0.00000  -0.00000  -0.00000   0.00000
-------------------------------------------------------------------------------


  Static dielectric constant tensor : 

-------------------------------------------------------------------------------
              x         y         z
-------------------------------------------------------------------------------
       x     1.21463   0.00117   0.00069
       y     0.00117   1.20920   0.00014
       z     0.00069   0.00014   1.20905
--------------------------------------------------------------------------------

  Static refractive indices : 

-------------------------------------------------------------------------------
    1 =    1.09953      2 =    1.09953      3 =    1.10225
-------------------------------------------------------------------------------


  Time to end of properties =    1481.9166 seconds


********************************************************************************
*  Output for configuration 151                                                *
********************************************************************************


  Components of energy : 

--------------------------------------------------------------------------------
  Interatomic potentials     =          -2.18801196 eV
  Monopole - monopole (real) =           0.06638735 eV
  Monopole - monopole (recip)=          -0.03788526 eV
  Monopole - monopole (total)=           0.02850208 eV
  Energy shift               =         -15.67265685 eV
--------------------------------------------------------------------------------
  Total lattice energy       =         -17.83216672 eV
--------------------------------------------------------------------------------
  Total lattice energy       =           -1720.5315 kJ/(mole unit cells)
--------------------------------------------------------------------------------


  Number of variables =      6

  Maximum number of calculations  =          1000
  Maximum Hessian update interval =            10
  Maximum step size               =   1.000000000
  Maximum parameter tolerance     =   0.000010000
  Maximum function  tolerance     =   0.000010000
  Maximum gradient  tolerance     =   0.001000000
  Maximum gradient  component     =   0.010000000

  Symmetry not applied to optimisation

  Cell parameters to be optimised using strains

  Newton-Raphson optimiser to be used

  BFGS hessian update to be used

  Dumpfile to be written after every cycle

  Start of bulk optimisation :

  Cycle:      0 Energy:       -17.832167  Gnorm:      0.189513  CPU: 1481.945
  ** Hessian calculated **
  Cycle:      1 Energy:       -17.838302  Gnorm:      0.006929  CPU: 1481.953
  Cycle:      2 Energy:       -17.838324  Gnorm:      0.000460  CPU: 1481.985


  **** Optimisation achieved ****


  Final energy =     -17.83832427 eV
  Final Gnorm  =       0.00001831

  Components of energy : 

--------------------------------------------------------------------------------
  Interatomic potentials     =          -2.16439295 eV
  Monopole - monopole (real) =           0.06342372 eV
  Monopole - monopole (recip)=          -0.06469819 eV
  Monopole - monopole (total)=          -0.00127447 eV
  Energy shift               =         -15.67265685 eV
--------------------------------------------------------------------------------
  Total lattice energy       =         -17.83832427 eV
--------------------------------------------------------------------------------
  Total lattice energy       =           -1721.1256 kJ/(mole unit cells)
--------------------------------------------------------------------------------

  Final fractional coordinates of atoms :

--------------------------------------------------------------------------------
   No.  Atomic        x           y          z          Radius
        Label       (Frac)      (Frac)     (Frac)       (Angs) 
--------------------------------------------------------------------------------
     1  Sb    c     0.396797    0.396797    0.396797    0.000000
     2  Sb    c     0.603203    0.603203    0.603203    0.000000
     3  Te1   c     0.000000    0.000000    0.000000    0.000000
     4  Te2   c     0.784571    0.784571    0.784571    0.000000
     5  Te2   c     0.215429    0.215429    0.215429    0.000000
--------------------------------------------------------------------------------

  Final Cartesian lattice vectors (Angstroms) :

       10.606393   -0.030946   -0.018373
        9.729163    4.223733   -0.018373
        9.729163    2.005960    3.717039


  Final cell parameters and derivatives :

--------------------------------------------------------------------------------
       a           10.606454 Angstrom     dE/de1(xx)    -0.000087 eV/strain
       b           10.606454 Angstrom     dE/de2(yy)    -0.000047 eV/strain
       c           10.606454 Angstrom     dE/de3(zz)    -0.000046 eV/strain
       alpha       23.634300 Degrees      dE/de4(yz)    -0.000001 eV/strain
       beta        23.634300 Degrees      dE/de5(xz)    -0.000005 eV/strain
       gamma       23.634300 Degrees      dE/de6(xy)    -0.000009 eV/strain
--------------------------------------------------------------------------------

  Primitive cell volume =           168.430018 Angs**3

  Density of cell =      6.174743 g/cm**3

  Non-primitive cell volume =           168.430018 Angs**3


  Final internal derivatives :

--------------------------------------------------------------------------------
   No.  Atomic          x             y             z           Radius
        Label          (eV)          (eV)          (eV)        (eV/Angs)
--------------------------------------------------------------------------------
      1 Sb    c       0.000000      0.000000      0.000000      0.000000
      2 Sb    c       0.000000      0.000000      0.000000      0.000000
      3 Te1   c       0.000000      0.000000      0.000000      0.000000
      4 Te2   c       0.000000      0.000000      0.000000      0.000000
      5 Te2   c       0.000000      0.000000      0.000000      0.000000
--------------------------------------------------------------------------------
  Maximum abs         0.000000      0.000000      0.000000      0.000000
--------------------------------------------------------------------------------


  Born effective charge tensors : 

-------------------------------------------------------------------------------
  Atom             x           y             z
-------------------------------------------------------------------------------
   1 Sb    x      -0.0410      0.0000      0.0000
           y       0.0000     -0.0410      0.0000
           z       0.0000      0.0000     -0.0410
-------------------------------------------------------------------------------
   2 Sb    x      -0.0410      0.0000      0.0000
           y       0.0000     -0.0410      0.0000
           z       0.0000      0.0000     -0.0410
-------------------------------------------------------------------------------
   3 Te1   x      -0.4038      0.0000      0.0000
           y       0.0000     -0.4038      0.0000
           z       0.0000      0.0000     -0.4038
-------------------------------------------------------------------------------
   4 Te2   x       0.2429      0.0000      0.0000
           y       0.0000      0.2429      0.0000
           z       0.0000      0.0000      0.2429
-------------------------------------------------------------------------------
   5 Te2   x       0.2429      0.0000      0.0000
           y       0.0000      0.2429      0.0000
           z       0.0000      0.0000      0.2429
-------------------------------------------------------------------------------




  Elastic Constant Matrix: (Units=GPa)

-------------------------------------------------------------------------------
  Indices      1         2         3         4         5         6    
-------------------------------------------------------------------------------
       1     42.0542   13.6081   21.6764   -7.3981   -1.9360   -3.2608
       2     13.6081   33.8053   13.3320    9.9401   14.2653    5.0371
       3     21.6764   13.3320   25.2600   -2.1047  -10.2079    1.7968
       4     -7.3981    9.9401   -2.1047   15.8606    2.6071   14.7464
       5     -1.9360   14.2653  -10.2079    2.6071   27.9679   -7.2989
       6     -3.2608    5.0371    1.7968   14.7464   -7.2989   20.0078
-------------------------------------------------------------------------------


  Elastic Compliance Matrix: (Units=1/GPa)

-------------------------------------------------------------------------------
  Indices      1         2         3         4         5         6    
-------------------------------------------------------------------------------
       1    0.063589 -0.004009 -0.056131  0.095584 -0.040951 -0.068974
       2   -0.004009  0.215713 -0.189060 -0.138156 -0.165527  0.003459
       3   -0.056131 -0.189060  0.268387  0.041560  0.201570  0.057248
       4    0.095584 -0.138156  0.041560  0.630644 -0.083629 -0.448685
       5   -0.040951 -0.165527  0.201570 -0.083629  0.242276  0.166916
       6   -0.068974  0.003459  0.057248 -0.448685  0.166916  0.424313
-------------------------------------------------------------------------------

 Mechanical properties :

-------------------------------------------------------------------------------
  Convention :                    Reuss         Voigt         Hill
-------------------------------------------------------------------------------
  Bulk  Modulus (GPa)     =      20.28763      22.03915      21.16339
  Shear Modulus (GPa)     =       2.11887      16.26747       9.19317
-------------------------------------------------------------------------------
  Velocity S-wave (km/s)  =       1.85243       5.13276       3.85854
  Velocity P-wave (km/s)  =       6.11810       8.41542       7.35699
-------------------------------------------------------------------------------
  Compressibility (1/GPa) =    0.04929112
-------------------------------------------------------------------------------
  Stress axis :                     x             y             z
-------------------------------------------------------------------------------
  Youngs Moduli (GPa)     =      15.72587       4.63578       3.72596
-------------------------------------------------------------------------------
  Poissons Ratio (x)      =                     0.01858       0.20914
  Poissons Ratio (y)      =       0.06304                     0.70443
  Poissons Ratio (z)      =       0.88270       0.87644
-------------------------------------------------------------------------------


  Piezoelectric Strain Matrix: (Units=C/m**2)

-------------------------------------------------------------------------------
  Indices      1         2         3         4         5         6    
-------------------------------------------------------------------------------
       x    -0.00000  -0.00000  -0.00000   0.00000   0.00000   0.00000
       y     0.00000  -0.00000  -0.00000  -0.00000   0.00000  -0.00000
       z     0.00000  -0.00000   0.00000  -0.00000  -0.00000   0.00000
-------------------------------------------------------------------------------


  Piezoelectric Stress Matrix: (Units=10**-11 C/N)

-------------------------------------------------------------------------------
  Indices      1         2         3         4         5         6    
-------------------------------------------------------------------------------
       x    -0.00000  -0.00000  -0.00000   0.00000   0.00000   0.00000
       y     0.00000  -0.00000  -0.00000  -0.00000   0.00000  -0.00000
       z     0.00000  -0.00000   0.00000  -0.00000  -0.00000   0.00000
-------------------------------------------------------------------------------


  Static dielectric constant tensor : 

-------------------------------------------------------------------------------
              x         y         z
-------------------------------------------------------------------------------
       x     1.20292   0.00415   0.00246
       y     0.00415   1.18366   0.00051
       z     0.00246   0.00051   1.18311
--------------------------------------------------------------------------------

  Static refractive indices : 

-------------------------------------------------------------------------------
    1 =    1.08757      2 =    1.08757      3 =    1.09731
-------------------------------------------------------------------------------


  Time to end of optimisation =    1482.0246 seconds


  Peak dynamic memory used =       1.79 MB 


  Timing analysis for GULP :

--------------------------------------------------------------------------------
  Task / Subroutine                                          Time (Seconds)
--------------------------------------------------------------------------------
  Calculation of reciprocal space energy and derivatives         89.8538
  Calculation of real space energy and derivatives             1350.4082
  Sum of squares for fitting                                     31.9460
  Global summation overhead                                       1.2601
--------------------------------------------------------------------------------
  Total CPU time                                               1482.0246
--------------------------------------------------------------------------------


  Dump file written as sb2te3.res                                              



  **** GULP has completed with 152 warnings - beware! ****

  Job Finished at 10:56.47 21st June       2010                               

