********************************************************************************
*                       GENERAL UTILITY LATTICE PROGRAM                        *
*                                 Julian Gale                                  *
*                      Nanochemistry Research Institute                        *
*             Curtin University of Technology, Western Australia               *
********************************************************************************
* Version = 3.4.7 * Last modified =  21st July 2009                            *
********************************************************************************
*  fit          - perform fitting run                                          *
*  optimise     - perform optimisation run after fitting                       *
*  property     - calculate properties for final geometry                      *
*  fbfgs        - use full numerical Hessian in BFGS for fitting               *
********************************************************************************

  Job Started  at 10:04.24 21st June       2010                               

  Number of CPUs =     1


  Total number of configurations input = 151

********************************************************************************
*  Input for Configuration =   1                                               *
********************************************************************************

  Formula = Sb2Te3                                                      

  Number of irreducible atoms/shells =       5


  Total number atoms/shells =       5

  Dimensionality = 3               :  Bulk   



  Cartesian lattice vectors (Angstroms) :

       -2.504286    0.000000   10.443767
        1.252143   -2.168775   10.443767
        1.252143    2.168775   10.443767

  Cell parameters (Angstroms/Degrees):

  a =      10.7398    alpha =  23.3006
  b =      10.7398    beta  =  23.3006
  c =      10.7398    gamma =  23.3006

  Initial cell volume =         170.167643 Angs**3

  Temperature of configuration =  0.000     K 

  Pressure of configuration =         0.000 GPa 

  Fractional coordinates of asymmetric unit :

--------------------------------------------------------------------------------
   No.  Atomic       x           y          z         Charge      Occupancy
        Label      (Frac)      (Frac)     (Frac)        (e)         (Frac)  
--------------------------------------------------------------------------------
      1 Sb    c    0.369021    0.369021    0.369021      0.0000    1.000000    
      2 Sb    c    0.603203    0.603203    0.603203      0.0000    1.000000    
      3 Te1   c    0.000000    0.000000    0.000000     -0.0000    1.000000    
      4 Te2   c    0.784571    0.784571    0.784571     -0.0000    1.000000    
      5 Te2   c    0.215429    0.215429    0.215429     -0.0000    1.000000    
--------------------------------------------------------------------------------



********************************************************************************
*  Input for Configuration =   2                                               *
********************************************************************************

  Formula = Sb2Te3                                                      

  Number of irreducible atoms/shells =       5


  Total number atoms/shells =       5

  Dimensionality = 3               :  Bulk   



  Cartesian lattice vectors (Angstroms) :

       -2.504286    0.000000   10.443767
        1.252143   -2.168775   10.443767
        1.252143    2.168775   10.443767

  Cell parameters (Angstroms/Degrees):

  a =      10.7398    alpha =  23.3006
  b =      10.7398    beta  =  23.3006
  c =      10.7398    gamma =  23.3006

  Initial cell volume =         170.167643 Angs**3

  Temperature of configuration =  0.000     K 

  Pressure of configuration =         0.000 GPa 

  Fractional coordinates of asymmetric unit :

--------------------------------------------------------------------------------
   No.  Atomic       x           y          z         Charge      Occupancy
        Label      (Frac)      (Frac)     (Frac)        (e)         (Frac)  
--------------------------------------------------------------------------------
      1 Sb    c    0.372989    0.372989    0.372989      0.0000    1.000000    
      2 Sb    c    0.603203    0.603203    0.603203      0.0000    1.000000    
      3 Te1   c    0.000000    0.000000    0.000000     -0.0000    1.000000    
      4 Te2   c    0.784571    0.784571    0.784571     -0.0000    1.000000    
      5 Te2   c    0.215429    0.215429    0.215429     -0.0000    1.000000    
--------------------------------------------------------------------------------



********************************************************************************
*  Input for Configuration =   3                                               *
********************************************************************************

  Formula = Sb2Te3                                                      

  Number of irreducible atoms/shells =       5


  Total number atoms/shells =       5

  Dimensionality = 3               :  Bulk   



  Cartesian lattice vectors (Angstroms) :

       -2.504286    0.000000   10.443767
        1.252143   -2.168775   10.443767
        1.252143    2.168775   10.443767

  Cell parameters (Angstroms/Degrees):

  a =      10.7398    alpha =  23.3006
  b =      10.7398    beta  =  23.3006
  c =      10.7398    gamma =  23.3006

  Initial cell volume =         170.167643 Angs**3

  Temperature of configuration =  0.000     K 

  Pressure of configuration =         0.000 GPa 

  Fractional coordinates of asymmetric unit :

--------------------------------------------------------------------------------
   No.  Atomic       x           y          z         Charge      Occupancy
        Label      (Frac)      (Frac)     (Frac)        (e)         (Frac)  
--------------------------------------------------------------------------------
      1 Sb    c    0.376957    0.376957    0.376957      0.0000    1.000000    
      2 Sb    c    0.603203    0.603203    0.603203      0.0000    1.000000    
      3 Te1   c    0.000000    0.000000    0.000000     -0.0000    1.000000    
      4 Te2   c    0.784571    0.784571    0.784571     -0.0000    1.000000    
      5 Te2   c    0.215429    0.215429    0.215429     -0.0000    1.000000    
--------------------------------------------------------------------------------



********************************************************************************
*  Input for Configuration =   4                                               *
********************************************************************************

  Formula = Sb2Te3                                                      

  Number of irreducible atoms/shells =       5


  Total number atoms/shells =       5

  Dimensionality = 3               :  Bulk   



  Cartesian lattice vectors (Angstroms) :

       -2.504286    0.000000   10.443767
        1.252143   -2.168775   10.443767
        1.252143    2.168775   10.443767

  Cell parameters (Angstroms/Degrees):

  a =      10.7398    alpha =  23.3006
  b =      10.7398    beta  =  23.3006
  c =      10.7398    gamma =  23.3006

  Initial cell volume =         170.167643 Angs**3

  Temperature of configuration =  0.000     K 

  Pressure of configuration =         0.000 GPa 

  Fractional coordinates of asymmetric unit :

--------------------------------------------------------------------------------
   No.  Atomic       x           y          z         Charge      Occupancy
        Label      (Frac)      (Frac)     (Frac)        (e)         (Frac)  
--------------------------------------------------------------------------------
      1 Sb    c    0.380925    0.380925    0.380925      0.0000    1.000000    
      2 Sb    c    0.603203    0.603203    0.603203      0.0000    1.000000    
      3 Te1   c    0.000000    0.000000    0.000000     -0.0000    1.000000    
      4 Te2   c    0.784571    0.784571    0.784571     -0.0000    1.000000    
      5 Te2   c    0.215429    0.215429    0.215429     -0.0000    1.000000    
--------------------------------------------------------------------------------



********************************************************************************
*  Input for Configuration =   5                                               *
********************************************************************************

  Formula = Sb2Te3                                                      

  Number of irreducible atoms/shells =       5


  Total number atoms/shells =       5

  Dimensionality = 3               :  Bulk   



  Cartesian lattice vectors (Angstroms) :

       -2.504286    0.000000   10.443767
        1.252143   -2.168775   10.443767
        1.252143    2.168775   10.443767

  Cell parameters (Angstroms/Degrees):

  a =      10.7398    alpha =  23.3006
  b =      10.7398    beta  =  23.3006
  c =      10.7398    gamma =  23.3006

  Initial cell volume =         170.167643 Angs**3

  Temperature of configuration =  0.000     K 

  Pressure of configuration =         0.000 GPa 

  Fractional coordinates of asymmetric unit :

--------------------------------------------------------------------------------
   No.  Atomic       x           y          z         Charge      Occupancy
        Label      (Frac)      (Frac)     (Frac)        (e)         (Frac)  
--------------------------------------------------------------------------------
      1 Sb    c    0.384893    0.384893    0.384893      0.0000    1.000000    
      2 Sb    c    0.603203    0.603203    0.603203      0.0000    1.000000    
      3 Te1   c    0.000000    0.000000    0.000000     -0.0000    1.000000    
      4 Te2   c    0.784571    0.784571    0.784571     -0.0000    1.000000    
      5 Te2   c    0.215429    0.215429    0.215429     -0.0000    1.000000    
--------------------------------------------------------------------------------



********************************************************************************
*  Input for Configuration =   6                                               *
********************************************************************************

  Formula = Sb2Te3                                                      

  Number of irreducible atoms/shells =       5


  Total number atoms/shells =       5

  Dimensionality = 3               :  Bulk   



  Cartesian lattice vectors (Angstroms) :

       -2.504286    0.000000   10.443767
        1.252143   -2.168775   10.443767
        1.252143    2.168775   10.443767

  Cell parameters (Angstroms/Degrees):

  a =      10.7398    alpha =  23.3006
  b =      10.7398    beta  =  23.3006
  c =      10.7398    gamma =  23.3006

  Initial cell volume =         170.167643 Angs**3

  Temperature of configuration =  0.000     K 

  Pressure of configuration =         0.000 GPa 

  Fractional coordinates of asymmetric unit :

--------------------------------------------------------------------------------
   No.  Atomic       x           y          z         Charge      Occupancy
        Label      (Frac)      (Frac)     (Frac)        (e)         (Frac)  
--------------------------------------------------------------------------------
      1 Sb    c    0.388861    0.388861    0.388861      0.0000    1.000000    
      2 Sb    c    0.603203    0.603203    0.603203      0.0000    1.000000    
      3 Te1   c    0.000000    0.000000    0.000000     -0.0000    1.000000    
      4 Te2   c    0.784571    0.784571    0.784571     -0.0000    1.000000    
      5 Te2   c    0.215429    0.215429    0.215429     -0.0000    1.000000    
--------------------------------------------------------------------------------



********************************************************************************
*  Input for Configuration =   7                                               *
********************************************************************************

  Formula = Sb2Te3                                                      

  Number of irreducible atoms/shells =       5


  Total number atoms/shells =       5

  Dimensionality = 3               :  Bulk   



  Cartesian lattice vectors (Angstroms) :

       -2.504286    0.000000   10.443767
        1.252143   -2.168775   10.443767
        1.252143    2.168775   10.443767

  Cell parameters (Angstroms/Degrees):

  a =      10.7398    alpha =  23.3006
  b =      10.7398    beta  =  23.3006
  c =      10.7398    gamma =  23.3006

  Initial cell volume =         170.167643 Angs**3

  Temperature of configuration =  0.000     K 

  Pressure of configuration =         0.000 GPa 

  Fractional coordinates of asymmetric unit :

--------------------------------------------------------------------------------
   No.  Atomic       x           y          z         Charge      Occupancy
        Label      (Frac)      (Frac)     (Frac)        (e)         (Frac)  
--------------------------------------------------------------------------------
      1 Sb    c    0.392829    0.392829    0.392829      0.0000    1.000000    
      2 Sb    c    0.603203    0.603203    0.603203      0.0000    1.000000    
      3 Te1   c    0.000000    0.000000    0.000000     -0.0000    1.000000    
      4 Te2   c    0.784571    0.784571    0.784571     -0.0000    1.000000    
      5 Te2   c    0.215429    0.215429    0.215429     -0.0000    1.000000    
--------------------------------------------------------------------------------



********************************************************************************
*  Input for Configuration =   8                                               *
********************************************************************************

  Formula = Sb2Te3                                                      

  Number of irreducible atoms/shells =       5


  Total number atoms/shells =       5

  Dimensionality = 3               :  Bulk   



  Cartesian lattice vectors (Angstroms) :

       -2.504286    0.000000   10.443767
        1.252143   -2.168775   10.443767
        1.252143    2.168775   10.443767

  Cell parameters (Angstroms/Degrees):

  a =      10.7398    alpha =  23.3006
  b =      10.7398    beta  =  23.3006
  c =      10.7398    gamma =  23.3006

  Initial cell volume =         170.167643 Angs**3

  Temperature of configuration =  0.000     K 

  Pressure of configuration =         0.000 GPa 

  Fractional coordinates of asymmetric unit :

--------------------------------------------------------------------------------
   No.  Atomic       x           y          z         Charge      Occupancy
        Label      (Frac)      (Frac)     (Frac)        (e)         (Frac)  
--------------------------------------------------------------------------------
      1 Sb    c    0.396797    0.396797    0.396797      0.0000    1.000000    
      2 Sb    c    0.603203    0.603203    0.603203      0.0000    1.000000    
      3 Te1   c    0.000000    0.000000    0.000000     -0.0000    1.000000    
      4 Te2   c    0.784571    0.784571    0.784571     -0.0000    1.000000    
      5 Te2   c    0.215429    0.215429    0.215429     -0.0000    1.000000    
--------------------------------------------------------------------------------



********************************************************************************
*  Input for Configuration =   9                                               *
********************************************************************************

  Formula = Sb2Te3                                                      

  Number of irreducible atoms/shells =       5


  Total number atoms/shells =       5

  Dimensionality = 3               :  Bulk   



  Cartesian lattice vectors (Angstroms) :

       -2.504286    0.000000   10.443767
        1.252143   -2.168775   10.443767
        1.252143    2.168775   10.443767

  Cell parameters (Angstroms/Degrees):

  a =      10.7398    alpha =  23.3006
  b =      10.7398    beta  =  23.3006
  c =      10.7398    gamma =  23.3006

  Initial cell volume =         170.167643 Angs**3

  Temperature of configuration =  0.000     K 

  Pressure of configuration =         0.000 GPa 

  Fractional coordinates of asymmetric unit :

--------------------------------------------------------------------------------
   No.  Atomic       x           y          z         Charge      Occupancy
        Label      (Frac)      (Frac)     (Frac)        (e)         (Frac)  
--------------------------------------------------------------------------------
      1 Sb    c    0.400765    0.400765    0.400765      0.0000    1.000000    
      2 Sb    c    0.603203    0.603203    0.603203      0.0000    1.000000    
      3 Te1   c    0.000000    0.000000    0.000000     -0.0000    1.000000    
      4 Te2   c    0.784571    0.784571    0.784571     -0.0000    1.000000    
      5 Te2   c    0.215429    0.215429    0.215429     -0.0000    1.000000    
--------------------------------------------------------------------------------



********************************************************************************
*  Input for Configuration =  10                                               *
********************************************************************************

  Formula = Sb2Te3                                                      

  Number of irreducible atoms/shells =       5


  Total number atoms/shells =       5

  Dimensionality = 3               :  Bulk   



  Cartesian lattice vectors (Angstroms) :

       -2.504286    0.000000   10.443767
        1.252143   -2.168775   10.443767
        1.252143    2.168775   10.443767

  Cell parameters (Angstroms/Degrees):

  a =      10.7398    alpha =  23.3006
  b =      10.7398    beta  =  23.3006
  c =      10.7398    gamma =  23.3006

  Initial cell volume =         170.167643 Angs**3

  Temperature of configuration =  0.000     K 

  Pressure of configuration =         0.000 GPa 

  Fractional coordinates of asymmetric unit :

--------------------------------------------------------------------------------
   No.  Atomic       x           y          z         Charge      Occupancy
        Label      (Frac)      (Frac)     (Frac)        (e)         (Frac)  
--------------------------------------------------------------------------------
      1 Sb    c    0.404733    0.404733    0.404733      0.0000    1.000000    
      2 Sb    c    0.603203    0.603203    0.603203      0.0000    1.000000    
      3 Te1   c    0.000000    0.000000    0.000000     -0.0000    1.000000    
      4 Te2   c    0.784571    0.784571    0.784571     -0.0000    1.000000    
      5 Te2   c    0.215429    0.215429    0.215429     -0.0000    1.000000    
--------------------------------------------------------------------------------



********************************************************************************
*  Input for Configuration =  11                                               *
********************************************************************************

  Formula = Sb2Te3                                                      

  Number of irreducible atoms/shells =       5


  Total number atoms/shells =       5

  Dimensionality = 3               :  Bulk   



  Cartesian lattice vectors (Angstroms) :

       -2.504286    0.000000   10.443767
        1.252143   -2.168775   10.443767
        1.252143    2.168775   10.443767

  Cell parameters (Angstroms/Degrees):

  a =      10.7398    alpha =  23.3006
  b =      10.7398    beta  =  23.3006
  c =      10.7398    gamma =  23.3006

  Initial cell volume =         170.167643 Angs**3

  Temperature of configuration =  0.000     K 

  Pressure of configuration =         0.000 GPa 

  Fractional coordinates of asymmetric unit :

--------------------------------------------------------------------------------
   No.  Atomic       x           y          z         Charge      Occupancy
        Label      (Frac)      (Frac)     (Frac)        (e)         (Frac)  
--------------------------------------------------------------------------------
      1 Sb    c    0.408700    0.408700    0.408700      0.0000    1.000000    
      2 Sb    c    0.603203    0.603203    0.603203      0.0000    1.000000    
      3 Te1   c    0.000000    0.000000    0.000000     -0.0000    1.000000    
      4 Te2   c    0.784571    0.784571    0.784571     -0.0000    1.000000    
      5 Te2   c    0.215429    0.215429    0.215429     -0.0000    1.000000    
--------------------------------------------------------------------------------



********************************************************************************
*  Input for Configuration =  12                                               *
********************************************************************************

  Formula = Sb2Te3                                                      

  Number of irreducible atoms/shells =       5


  Total number atoms/shells =       5

  Dimensionality = 3               :  Bulk   



  Cartesian lattice vectors (Angstroms) :

       -2.504286    0.000000   10.443767
        1.252143   -2.168775   10.443767
        1.252143    2.168775   10.443767

  Cell parameters (Angstroms/Degrees):

  a =      10.7398    alpha =  23.3006
  b =      10.7398    beta  =  23.3006
  c =      10.7398    gamma =  23.3006

  Initial cell volume =         170.167643 Angs**3

  Temperature of configuration =  0.000     K 

  Pressure of configuration =         0.000 GPa 

  Fractional coordinates of asymmetric unit :

--------------------------------------------------------------------------------
   No.  Atomic       x           y          z         Charge      Occupancy
        Label      (Frac)      (Frac)     (Frac)        (e)         (Frac)  
--------------------------------------------------------------------------------
      1 Sb    c    0.412668    0.412668    0.412668      0.0000    1.000000    
      2 Sb    c    0.603203    0.603203    0.603203      0.0000    1.000000    
      3 Te1   c    0.000000    0.000000    0.000000     -0.0000    1.000000    
      4 Te2   c    0.784571    0.784571    0.784571     -0.0000    1.000000    
      5 Te2   c    0.215429    0.215429    0.215429     -0.0000    1.000000    
--------------------------------------------------------------------------------



********************************************************************************
*  Input for Configuration =  13                                               *
********************************************************************************

  Formula = Sb2Te3                                                      

  Number of irreducible atoms/shells =       5


  Total number atoms/shells =       5

  Dimensionality = 3               :  Bulk   



  Cartesian lattice vectors (Angstroms) :

       -2.504286    0.000000   10.443767
        1.252143   -2.168775   10.443767
        1.252143    2.168775   10.443767

  Cell parameters (Angstroms/Degrees):

  a =      10.7398    alpha =  23.3006
  b =      10.7398    beta  =  23.3006
  c =      10.7398    gamma =  23.3006

  Initial cell volume =         170.167643 Angs**3

  Temperature of configuration =  0.000     K 

  Pressure of configuration =         0.000 GPa 

  Fractional coordinates of asymmetric unit :

--------------------------------------------------------------------------------
   No.  Atomic       x           y          z         Charge      Occupancy
        Label      (Frac)      (Frac)     (Frac)        (e)         (Frac)  
--------------------------------------------------------------------------------
      1 Sb    c    0.416636    0.416636    0.416636      0.0000    1.000000    
      2 Sb    c    0.603203    0.603203    0.603203      0.0000    1.000000    
      3 Te1   c    0.000000    0.000000    0.000000     -0.0000    1.000000    
      4 Te2   c    0.784571    0.784571    0.784571     -0.0000    1.000000    
      5 Te2   c    0.215429    0.215429    0.215429     -0.0000    1.000000    
--------------------------------------------------------------------------------



********************************************************************************
*  Input for Configuration =  14                                               *
********************************************************************************

  Formula = Sb2Te3                                                      

  Number of irreducible atoms/shells =       5


  Total number atoms/shells =       5

  Dimensionality = 3               :  Bulk   



  Cartesian lattice vectors (Angstroms) :

       -2.504286    0.000000   10.443767
        1.252143   -2.168775   10.443767
        1.252143    2.168775   10.443767

  Cell parameters (Angstroms/Degrees):

  a =      10.7398    alpha =  23.3006
  b =      10.7398    beta  =  23.3006
  c =      10.7398    gamma =  23.3006

  Initial cell volume =         170.167643 Angs**3

  Temperature of configuration =  0.000     K 

  Pressure of configuration =         0.000 GPa 

  Fractional coordinates of asymmetric unit :

--------------------------------------------------------------------------------
   No.  Atomic       x           y          z         Charge      Occupancy
        Label      (Frac)      (Frac)     (Frac)        (e)         (Frac)  
--------------------------------------------------------------------------------
      1 Sb    c    0.420604    0.420604    0.420604      0.0000    1.000000    
      2 Sb    c    0.603203    0.603203    0.603203      0.0000    1.000000    
      3 Te1   c    0.000000    0.000000    0.000000     -0.0000    1.000000    
      4 Te2   c    0.784571    0.784571    0.784571     -0.0000    1.000000    
      5 Te2   c    0.215429    0.215429    0.215429     -0.0000    1.000000    
--------------------------------------------------------------------------------



********************************************************************************
*  Input for Configuration =  15                                               *
********************************************************************************

  Formula = Sb2Te3                                                      

  Number of irreducible atoms/shells =       5


  Total number atoms/shells =       5

  Dimensionality = 3               :  Bulk   



  Cartesian lattice vectors (Angstroms) :

       -2.504286    0.000000   10.443767
        1.252143   -2.168775   10.443767
        1.252143    2.168775   10.443767

  Cell parameters (Angstroms/Degrees):

  a =      10.7398    alpha =  23.3006
  b =      10.7398    beta  =  23.3006
  c =      10.7398    gamma =  23.3006

  Initial cell volume =         170.167643 Angs**3

  Temperature of configuration =  0.000     K 

  Pressure of configuration =         0.000 GPa 

  Fractional coordinates of asymmetric unit :

--------------------------------------------------------------------------------
   No.  Atomic       x           y          z         Charge      Occupancy
        Label      (Frac)      (Frac)     (Frac)        (e)         (Frac)  
--------------------------------------------------------------------------------
      1 Sb    c    0.424572    0.424572    0.424572      0.0000    1.000000    
      2 Sb    c    0.603203    0.603203    0.603203      0.0000    1.000000    
      3 Te1   c    0.000000    0.000000    0.000000     -0.0000    1.000000    
      4 Te2   c    0.784571    0.784571    0.784571     -0.0000    1.000000    
      5 Te2   c    0.215429    0.215429    0.215429     -0.0000    1.000000    
--------------------------------------------------------------------------------



********************************************************************************
*  Input for Configuration =  16                                               *
********************************************************************************

  Formula = Sb2Te3                                                      

  Number of irreducible atoms/shells =       5


  Total number atoms/shells =       5

  Dimensionality = 3               :  Bulk   



  Cartesian lattice vectors (Angstroms) :

       -2.504286    0.000000   10.443767
        1.252143   -2.168775   10.443767
        1.252143    2.168775   10.443767

  Cell parameters (Angstroms/Degrees):

  a =      10.7398    alpha =  23.3006
  b =      10.7398    beta  =  23.3006
  c =      10.7398    gamma =  23.3006

  Initial cell volume =         170.167643 Angs**3

  Temperature of configuration =  0.000     K 

  Pressure of configuration =         0.000 GPa 

  Fractional coordinates of asymmetric unit :

--------------------------------------------------------------------------------
   No.  Atomic       x           y          z         Charge      Occupancy
        Label      (Frac)      (Frac)     (Frac)        (e)         (Frac)  
--------------------------------------------------------------------------------
      1 Sb    c    0.396797    0.396797    0.396797      0.0000    1.000000    
      2 Sb    c    0.560979    0.560979    0.560979      0.0000    1.000000    
      3 Te1   c    0.000000    0.000000    0.000000     -0.0000    1.000000    
      4 Te2   c    0.784571    0.784571    0.784571     -0.0000    1.000000    
      5 Te2   c    0.215429    0.215429    0.215429     -0.0000    1.000000    
--------------------------------------------------------------------------------



********************************************************************************
*  Input for Configuration =  17                                               *
********************************************************************************

  Formula = Sb2Te3                                                      

  Number of irreducible atoms/shells =       5


  Total number atoms/shells =       5

  Dimensionality = 3               :  Bulk   



  Cartesian lattice vectors (Angstroms) :

       -2.504286    0.000000   10.443767
        1.252143   -2.168775   10.443767
        1.252143    2.168775   10.443767

  Cell parameters (Angstroms/Degrees):

  a =      10.7398    alpha =  23.3006
  b =      10.7398    beta  =  23.3006
  c =      10.7398    gamma =  23.3006

  Initial cell volume =         170.167643 Angs**3

  Temperature of configuration =  0.000     K 

  Pressure of configuration =         0.000 GPa 

  Fractional coordinates of asymmetric unit :

--------------------------------------------------------------------------------
   No.  Atomic       x           y          z         Charge      Occupancy
        Label      (Frac)      (Frac)     (Frac)        (e)         (Frac)  
--------------------------------------------------------------------------------
      1 Sb    c    0.396797    0.396797    0.396797      0.0000    1.000000    
      2 Sb    c    0.567011    0.567011    0.567011      0.0000    1.000000    
      3 Te1   c    0.000000    0.000000    0.000000     -0.0000    1.000000    
      4 Te2   c    0.784571    0.784571    0.784571     -0.0000    1.000000    
      5 Te2   c    0.215429    0.215429    0.215429     -0.0000    1.000000    
--------------------------------------------------------------------------------



********************************************************************************
*  Input for Configuration =  18                                               *
********************************************************************************

  Formula = Sb2Te3                                                      

  Number of irreducible atoms/shells =       5


  Total number atoms/shells =       5

  Dimensionality = 3               :  Bulk   



  Cartesian lattice vectors (Angstroms) :

       -2.504286    0.000000   10.443767
        1.252143   -2.168775   10.443767
        1.252143    2.168775   10.443767

  Cell parameters (Angstroms/Degrees):

  a =      10.7398    alpha =  23.3006
  b =      10.7398    beta  =  23.3006
  c =      10.7398    gamma =  23.3006

  Initial cell volume =         170.167643 Angs**3

  Temperature of configuration =  0.000     K 

  Pressure of configuration =         0.000 GPa 

  Fractional coordinates of asymmetric unit :

--------------------------------------------------------------------------------
   No.  Atomic       x           y          z         Charge      Occupancy
        Label      (Frac)      (Frac)     (Frac)        (e)         (Frac)  
--------------------------------------------------------------------------------
      1 Sb    c    0.396797    0.396797    0.396797      0.0000    1.000000    
      2 Sb    c    0.573043    0.573043    0.573043      0.0000    1.000000    
      3 Te1   c    0.000000    0.000000    0.000000     -0.0000    1.000000    
      4 Te2   c    0.784571    0.784571    0.784571     -0.0000    1.000000    
      5 Te2   c    0.215429    0.215429    0.215429     -0.0000    1.000000    
--------------------------------------------------------------------------------



********************************************************************************
*  Input for Configuration =  19                                               *
********************************************************************************

  Formula = Sb2Te3                                                      

  Number of irreducible atoms/shells =       5


  Total number atoms/shells =       5

  Dimensionality = 3               :  Bulk   



  Cartesian lattice vectors (Angstroms) :

       -2.504286    0.000000   10.443767
        1.252143   -2.168775   10.443767
        1.252143    2.168775   10.443767

  Cell parameters (Angstroms/Degrees):

  a =      10.7398    alpha =  23.3006
  b =      10.7398    beta  =  23.3006
  c =      10.7398    gamma =  23.3006

  Initial cell volume =         170.167643 Angs**3

  Temperature of configuration =  0.000     K 

  Pressure of configuration =         0.000 GPa 

  Fractional coordinates of asymmetric unit :

--------------------------------------------------------------------------------
   No.  Atomic       x           y          z         Charge      Occupancy
        Label      (Frac)      (Frac)     (Frac)        (e)         (Frac)  
--------------------------------------------------------------------------------
      1 Sb    c    0.396797    0.396797    0.396797      0.0000    1.000000    
      2 Sb    c    0.579075    0.579075    0.579075      0.0000    1.000000    
      3 Te1   c    0.000000    0.000000    0.000000     -0.0000    1.000000    
      4 Te2   c    0.784571    0.784571    0.784571     -0.0000    1.000000    
      5 Te2   c    0.215429    0.215429    0.215429     -0.0000    1.000000    
--------------------------------------------------------------------------------



********************************************************************************
*  Input for Configuration =  20                                               *
********************************************************************************

  Formula = Sb2Te3                                                      

  Number of irreducible atoms/shells =       5


  Total number atoms/shells =       5

  Dimensionality = 3               :  Bulk   



  Cartesian lattice vectors (Angstroms) :

       -2.504286    0.000000   10.443767
        1.252143   -2.168775   10.443767
        1.252143    2.168775   10.443767

  Cell parameters (Angstroms/Degrees):

  a =      10.7398    alpha =  23.3006
  b =      10.7398    beta  =  23.3006
  c =      10.7398    gamma =  23.3006

  Initial cell volume =         170.167643 Angs**3

  Temperature of configuration =  0.000     K 

  Pressure of configuration =         0.000 GPa 

  Fractional coordinates of asymmetric unit :

--------------------------------------------------------------------------------
   No.  Atomic       x           y          z         Charge      Occupancy
        Label      (Frac)      (Frac)     (Frac)        (e)         (Frac)  
--------------------------------------------------------------------------------
      1 Sb    c    0.396797    0.396797    0.396797      0.0000    1.000000    
      2 Sb    c    0.585107    0.585107    0.585107      0.0000    1.000000    
      3 Te1   c    0.000000    0.000000    0.000000     -0.0000    1.000000    
      4 Te2   c    0.784571    0.784571    0.784571     -0.0000    1.000000    
      5 Te2   c    0.215429    0.215429    0.215429     -0.0000    1.000000    
--------------------------------------------------------------------------------



********************************************************************************
*  Input for Configuration =  21                                               *
********************************************************************************

  Formula = Sb2Te3                                                      

  Number of irreducible atoms/shells =       5


  Total number atoms/shells =       5

  Dimensionality = 3               :  Bulk   



  Cartesian lattice vectors (Angstroms) :

       -2.504286    0.000000   10.443767
        1.252143   -2.168775   10.443767
        1.252143    2.168775   10.443767

  Cell parameters (Angstroms/Degrees):

  a =      10.7398    alpha =  23.3006
  b =      10.7398    beta  =  23.3006
  c =      10.7398    gamma =  23.3006

  Initial cell volume =         170.167643 Angs**3

  Temperature of configuration =  0.000     K 

  Pressure of configuration =         0.000 GPa 

  Fractional coordinates of asymmetric unit :

--------------------------------------------------------------------------------
   No.  Atomic       x           y          z         Charge      Occupancy
        Label      (Frac)      (Frac)     (Frac)        (e)         (Frac)  
--------------------------------------------------------------------------------
      1 Sb    c    0.396797    0.396797    0.396797      0.0000    1.000000    
      2 Sb    c    0.591139    0.591139    0.591139      0.0000    1.000000    
      3 Te1   c    0.000000    0.000000    0.000000     -0.0000    1.000000    
      4 Te2   c    0.784571    0.784571    0.784571     -0.0000    1.000000    
      5 Te2   c    0.215429    0.215429    0.215429     -0.0000    1.000000    
--------------------------------------------------------------------------------



********************************************************************************
*  Input for Configuration =  22                                               *
********************************************************************************

  Formula = Sb2Te3                                                      

  Number of irreducible atoms/shells =       5


  Total number atoms/shells =       5

  Dimensionality = 3               :  Bulk   



  Cartesian lattice vectors (Angstroms) :

       -2.504286    0.000000   10.443767
        1.252143   -2.168775   10.443767
        1.252143    2.168775   10.443767

  Cell parameters (Angstroms/Degrees):

  a =      10.7398    alpha =  23.3006
  b =      10.7398    beta  =  23.3006
  c =      10.7398    gamma =  23.3006

  Initial cell volume =         170.167643 Angs**3

  Temperature of configuration =  0.000     K 

  Pressure of configuration =         0.000 GPa 

  Fractional coordinates of asymmetric unit :

--------------------------------------------------------------------------------
   No.  Atomic       x           y          z         Charge      Occupancy
        Label      (Frac)      (Frac)     (Frac)        (e)         (Frac)  
--------------------------------------------------------------------------------
      1 Sb    c    0.396797    0.396797    0.396797      0.0000    1.000000    
      2 Sb    c    0.597171    0.597171    0.597171      0.0000    1.000000    
      3 Te1   c    0.000000    0.000000    0.000000     -0.0000    1.000000    
      4 Te2   c    0.784571    0.784571    0.784571     -0.0000    1.000000    
      5 Te2   c    0.215429    0.215429    0.215429     -0.0000    1.000000    
--------------------------------------------------------------------------------



********************************************************************************
*  Input for Configuration =  23                                               *
********************************************************************************

  Formula = Sb2Te3                                                      

  Number of irreducible atoms/shells =       5


  Total number atoms/shells =       5

  Dimensionality = 3               :  Bulk   



  Cartesian lattice vectors (Angstroms) :

       -2.504286    0.000000   10.443767
        1.252143   -2.168775   10.443767
        1.252143    2.168775   10.443767

  Cell parameters (Angstroms/Degrees):

  a =      10.7398    alpha =  23.3006
  b =      10.7398    beta  =  23.3006
  c =      10.7398    gamma =  23.3006

  Initial cell volume =         170.167643 Angs**3

  Temperature of configuration =  0.000     K 

  Pressure of configuration =         0.000 GPa 

  Fractional coordinates of asymmetric unit :

--------------------------------------------------------------------------------
   No.  Atomic       x           y          z         Charge      Occupancy
        Label      (Frac)      (Frac)     (Frac)        (e)         (Frac)  
--------------------------------------------------------------------------------
      1 Sb    c    0.396797    0.396797    0.396797      0.0000    1.000000    
      2 Sb    c    0.603203    0.603203    0.603203      0.0000    1.000000    
      3 Te1   c    0.000000    0.000000    0.000000     -0.0000    1.000000    
      4 Te2   c    0.784571    0.784571    0.784571     -0.0000    1.000000    
      5 Te2   c    0.215429    0.215429    0.215429     -0.0000    1.000000    
--------------------------------------------------------------------------------



********************************************************************************
*  Input for Configuration =  24                                               *
********************************************************************************

  Formula = Sb2Te3                                                      

  Number of irreducible atoms/shells =       5


  Total number atoms/shells =       5

  Dimensionality = 3               :  Bulk   



  Cartesian lattice vectors (Angstroms) :

       -2.504286    0.000000   10.443767
        1.252143   -2.168775   10.443767
        1.252143    2.168775   10.443767

  Cell parameters (Angstroms/Degrees):

  a =      10.7398    alpha =  23.3006
  b =      10.7398    beta  =  23.3006
  c =      10.7398    gamma =  23.3006

  Initial cell volume =         170.167643 Angs**3

  Temperature of configuration =  0.000     K 

  Pressure of configuration =         0.000 GPa 

  Fractional coordinates of asymmetric unit :

--------------------------------------------------------------------------------
   No.  Atomic       x           y          z         Charge      Occupancy
        Label      (Frac)      (Frac)     (Frac)        (e)         (Frac)  
--------------------------------------------------------------------------------
      1 Sb    c    0.396797    0.396797    0.396797      0.0000    1.000000    
      2 Sb    c    0.609235    0.609235    0.609235      0.0000    1.000000    
      3 Te1   c    0.000000    0.000000    0.000000     -0.0000    1.000000    
      4 Te2   c    0.784571    0.784571    0.784571     -0.0000    1.000000    
      5 Te2   c    0.215429    0.215429    0.215429     -0.0000    1.000000    
--------------------------------------------------------------------------------



********************************************************************************
*  Input for Configuration =  25                                               *
********************************************************************************

  Formula = Sb2Te3                                                      

  Number of irreducible atoms/shells =       5


  Total number atoms/shells =       5

  Dimensionality = 3               :  Bulk   



  Cartesian lattice vectors (Angstroms) :

       -2.504286    0.000000   10.443767
        1.252143   -2.168775   10.443767
        1.252143    2.168775   10.443767

  Cell parameters (Angstroms/Degrees):

  a =      10.7398    alpha =  23.3006
  b =      10.7398    beta  =  23.3006
  c =      10.7398    gamma =  23.3006

  Initial cell volume =         170.167643 Angs**3

  Temperature of configuration =  0.000     K 

  Pressure of configuration =         0.000 GPa 

  Fractional coordinates of asymmetric unit :

--------------------------------------------------------------------------------
   No.  Atomic       x           y          z         Charge      Occupancy
        Label      (Frac)      (Frac)     (Frac)        (e)         (Frac)  
--------------------------------------------------------------------------------
      1 Sb    c    0.396797    0.396797    0.396797      0.0000    1.000000    
      2 Sb    c    0.615267    0.615267    0.615267      0.0000    1.000000    
      3 Te1   c    0.000000    0.000000    0.000000     -0.0000    1.000000    
      4 Te2   c    0.784571    0.784571    0.784571     -0.0000    1.000000    
      5 Te2   c    0.215429    0.215429    0.215429     -0.0000    1.000000    
--------------------------------------------------------------------------------



********************************************************************************
*  Input for Configuration =  26                                               *
********************************************************************************

  Formula = Sb2Te3                                                      

  Number of irreducible atoms/shells =       5


  Total number atoms/shells =       5

  Dimensionality = 3               :  Bulk   



  Cartesian lattice vectors (Angstroms) :

       -2.504286    0.000000   10.443767
        1.252143   -2.168775   10.443767
        1.252143    2.168775   10.443767

  Cell parameters (Angstroms/Degrees):

  a =      10.7398    alpha =  23.3006
  b =      10.7398    beta  =  23.3006
  c =      10.7398    gamma =  23.3006

  Initial cell volume =         170.167643 Angs**3

  Temperature of configuration =  0.000     K 

  Pressure of configuration =         0.000 GPa 

  Fractional coordinates of asymmetric unit :

--------------------------------------------------------------------------------
   No.  Atomic       x           y          z         Charge      Occupancy
        Label      (Frac)      (Frac)     (Frac)        (e)         (Frac)  
--------------------------------------------------------------------------------
      1 Sb    c    0.396797    0.396797    0.396797      0.0000    1.000000    
      2 Sb    c    0.621300    0.621300    0.621300      0.0000    1.000000    
      3 Te1   c    0.000000    0.000000    0.000000     -0.0000    1.000000    
      4 Te2   c    0.784571    0.784571    0.784571     -0.0000    1.000000    
      5 Te2   c    0.215429    0.215429    0.215429     -0.0000    1.000000    
--------------------------------------------------------------------------------



********************************************************************************
*  Input for Configuration =  27                                               *
********************************************************************************

  Formula = Sb2Te3                                                      

  Number of irreducible atoms/shells =       5


  Total number atoms/shells =       5

  Dimensionality = 3               :  Bulk   



  Cartesian lattice vectors (Angstroms) :

       -2.504286    0.000000   10.443767
        1.252143   -2.168775   10.443767
        1.252143    2.168775   10.443767

  Cell parameters (Angstroms/Degrees):

  a =      10.7398    alpha =  23.3006
  b =      10.7398    beta  =  23.3006
  c =      10.7398    gamma =  23.3006

  Initial cell volume =         170.167643 Angs**3

  Temperature of configuration =  0.000     K 

  Pressure of configuration =         0.000 GPa 

  Fractional coordinates of asymmetric unit :

--------------------------------------------------------------------------------
   No.  Atomic       x           y          z         Charge      Occupancy
        Label      (Frac)      (Frac)     (Frac)        (e)         (Frac)  
--------------------------------------------------------------------------------
      1 Sb    c    0.396797    0.396797    0.396797      0.0000    1.000000    
      2 Sb    c    0.627332    0.627332    0.627332      0.0000    1.000000    
      3 Te1   c    0.000000    0.000000    0.000000     -0.0000    1.000000    
      4 Te2   c    0.784571    0.784571    0.784571     -0.0000    1.000000    
      5 Te2   c    0.215429    0.215429    0.215429     -0.0000    1.000000    
--------------------------------------------------------------------------------



********************************************************************************
*  Input for Configuration =  28                                               *
********************************************************************************

  Formula = Sb2Te3                                                      

  Number of irreducible atoms/shells =       5


  Total number atoms/shells =       5

  Dimensionality = 3               :  Bulk   



  Cartesian lattice vectors (Angstroms) :

       -2.504286    0.000000   10.443767
        1.252143   -2.168775   10.443767
        1.252143    2.168775   10.443767

  Cell parameters (Angstroms/Degrees):

  a =      10.7398    alpha =  23.3006
  b =      10.7398    beta  =  23.3006
  c =      10.7398    gamma =  23.3006

  Initial cell volume =         170.167643 Angs**3

  Temperature of configuration =  0.000     K 

  Pressure of configuration =         0.000 GPa 

  Fractional coordinates of asymmetric unit :

--------------------------------------------------------------------------------
   No.  Atomic       x           y          z         Charge      Occupancy
        Label      (Frac)      (Frac)     (Frac)        (e)         (Frac)  
--------------------------------------------------------------------------------
      1 Sb    c    0.396797    0.396797    0.396797      0.0000    1.000000    
      2 Sb    c    0.633364    0.633364    0.633364      0.0000    1.000000    
      3 Te1   c    0.000000    0.000000    0.000000     -0.0000    1.000000    
      4 Te2   c    0.784571    0.784571    0.784571     -0.0000    1.000000    
      5 Te2   c    0.215429    0.215429    0.215429     -0.0000    1.000000    
--------------------------------------------------------------------------------



********************************************************************************
*  Input for Configuration =  29                                               *
********************************************************************************

  Formula = Sb2Te3                                                      

  Number of irreducible atoms/shells =       5


  Total number atoms/shells =       5

  Dimensionality = 3               :  Bulk   



  Cartesian lattice vectors (Angstroms) :

       -2.504286    0.000000   10.443767
        1.252143   -2.168775   10.443767
        1.252143    2.168775   10.443767

  Cell parameters (Angstroms/Degrees):

  a =      10.7398    alpha =  23.3006
  b =      10.7398    beta  =  23.3006
  c =      10.7398    gamma =  23.3006

  Initial cell volume =         170.167643 Angs**3

  Temperature of configuration =  0.000     K 

  Pressure of configuration =         0.000 GPa 

  Fractional coordinates of asymmetric unit :

--------------------------------------------------------------------------------
   No.  Atomic       x           y          z         Charge      Occupancy
        Label      (Frac)      (Frac)     (Frac)        (e)         (Frac)  
--------------------------------------------------------------------------------
      1 Sb    c    0.396797    0.396797    0.396797      0.0000    1.000000    
      2 Sb    c    0.639396    0.639396    0.639396      0.0000    1.000000    
      3 Te1   c    0.000000    0.000000    0.000000     -0.0000    1.000000    
      4 Te2   c    0.784571    0.784571    0.784571     -0.0000    1.000000    
      5 Te2   c    0.215429    0.215429    0.215429     -0.0000    1.000000    
--------------------------------------------------------------------------------



********************************************************************************
*  Input for Configuration =  30                                               *
********************************************************************************

  Formula = Sb2Te3                                                      

  Number of irreducible atoms/shells =       5


  Total number atoms/shells =       5

  Dimensionality = 3               :  Bulk   



  Cartesian lattice vectors (Angstroms) :

       -2.504286    0.000000   10.443767
        1.252143   -2.168775   10.443767
        1.252143    2.168775   10.443767

  Cell parameters (Angstroms/Degrees):

  a =      10.7398    alpha =  23.3006
  b =      10.7398    beta  =  23.3006
  c =      10.7398    gamma =  23.3006

  Initial cell volume =         170.167643 Angs**3

  Temperature of configuration =  0.000     K 

  Pressure of configuration =         0.000 GPa 

  Fractional coordinates of asymmetric unit :

--------------------------------------------------------------------------------
   No.  Atomic       x           y          z         Charge      Occupancy
        Label      (Frac)      (Frac)     (Frac)        (e)         (Frac)  
--------------------------------------------------------------------------------
      1 Sb    c    0.396797    0.396797    0.396797      0.0000    1.000000    
      2 Sb    c    0.645428    0.645428    0.645428      0.0000    1.000000    
      3 Te1   c    0.000000    0.000000    0.000000     -0.0000    1.000000    
      4 Te2   c    0.784571    0.784571    0.784571     -0.0000    1.000000    
      5 Te2   c    0.215429    0.215429    0.215429     -0.0000    1.000000    
--------------------------------------------------------------------------------



********************************************************************************
*  Input for Configuration =  31                                               *
********************************************************************************

  Formula = Sb2Te3                                                      

  Number of irreducible atoms/shells =       5


  Total number atoms/shells =       5

  Dimensionality = 3               :  Bulk   



  Cartesian lattice vectors (Angstroms) :

       -2.504286    0.000000   10.443767
        1.252143   -2.168775   10.443767
        1.252143    2.168775   10.443767

  Cell parameters (Angstroms/Degrees):

  a =      10.7398    alpha =  23.3006
  b =      10.7398    beta  =  23.3006
  c =      10.7398    gamma =  23.3006

  Initial cell volume =         170.167643 Angs**3

  Temperature of configuration =  0.000     K 

  Pressure of configuration =         0.000 GPa 

  Fractional coordinates of asymmetric unit :

--------------------------------------------------------------------------------
   No.  Atomic       x           y          z         Charge      Occupancy
        Label      (Frac)      (Frac)     (Frac)        (e)         (Frac)  
--------------------------------------------------------------------------------
      1 Sb    c    0.396797    0.396797    0.396797      0.0000    1.000000    
      2 Sb    c    0.603203    0.603203    0.603203      0.0000    1.000000    
      3 Te1   c    0.930000    0.930000    0.930000     -0.0000    1.000000    
      4 Te2   c    0.784571    0.784571    0.784571     -0.0000    1.000000    
      5 Te2   c    0.215429    0.215429    0.215429     -0.0000    1.000000    
--------------------------------------------------------------------------------



********************************************************************************
*  Input for Configuration =  32                                               *
********************************************************************************

  Formula = Sb2Te3                                                      

  Number of irreducible atoms/shells =       5


  Total number atoms/shells =       5

  Dimensionality = 3               :  Bulk   



  Cartesian lattice vectors (Angstroms) :

       -2.504286    0.000000   10.443767
        1.252143   -2.168775   10.443767
        1.252143    2.168775   10.443767

  Cell parameters (Angstroms/Degrees):

  a =      10.7398    alpha =  23.3006
  b =      10.7398    beta  =  23.3006
  c =      10.7398    gamma =  23.3006

  Initial cell volume =         170.167643 Angs**3

  Temperature of configuration =  0.000     K 

  Pressure of configuration =         0.000 GPa 

  Fractional coordinates of asymmetric unit :

--------------------------------------------------------------------------------
   No.  Atomic       x           y          z         Charge      Occupancy
        Label      (Frac)      (Frac)     (Frac)        (e)         (Frac)  
--------------------------------------------------------------------------------
      1 Sb    c    0.396797    0.396797    0.396797      0.0000    1.000000    
      2 Sb    c    0.603203    0.603203    0.603203      0.0000    1.000000    
      3 Te1   c    0.940000    0.940000    0.940000     -0.0000    1.000000    
      4 Te2   c    0.784571    0.784571    0.784571     -0.0000    1.000000    
      5 Te2   c    0.215429    0.215429    0.215429     -0.0000    1.000000    
--------------------------------------------------------------------------------



********************************************************************************
*  Input for Configuration =  33                                               *
********************************************************************************

  Formula = Sb2Te3                                                      

  Number of irreducible atoms/shells =       5


  Total number atoms/shells =       5

  Dimensionality = 3               :  Bulk   



  Cartesian lattice vectors (Angstroms) :

       -2.504286    0.000000   10.443767
        1.252143   -2.168775   10.443767
        1.252143    2.168775   10.443767

  Cell parameters (Angstroms/Degrees):

  a =      10.7398    alpha =  23.3006
  b =      10.7398    beta  =  23.3006
  c =      10.7398    gamma =  23.3006

  Initial cell volume =         170.167643 Angs**3

  Temperature of configuration =  0.000     K 

  Pressure of configuration =         0.000 GPa 

  Fractional coordinates of asymmetric unit :

--------------------------------------------------------------------------------
   No.  Atomic       x           y          z         Charge      Occupancy
        Label      (Frac)      (Frac)     (Frac)        (e)         (Frac)  
--------------------------------------------------------------------------------
      1 Sb    c    0.396797    0.396797    0.396797      0.0000    1.000000    
      2 Sb    c    0.603203    0.603203    0.603203      0.0000    1.000000    
      3 Te1   c    0.950000    0.950000    0.950000     -0.0000    1.000000    
      4 Te2   c    0.784571    0.784571    0.784571     -0.0000    1.000000    
      5 Te2   c    0.215429    0.215429    0.215429     -0.0000    1.000000    
--------------------------------------------------------------------------------



********************************************************************************
*  Input for Configuration =  34                                               *
********************************************************************************

  Formula = Sb2Te3                                                      

  Number of irreducible atoms/shells =       5


  Total number atoms/shells =       5

  Dimensionality = 3               :  Bulk   



  Cartesian lattice vectors (Angstroms) :

       -2.504286    0.000000   10.443767
        1.252143   -2.168775   10.443767
        1.252143    2.168775   10.443767

  Cell parameters (Angstroms/Degrees):

  a =      10.7398    alpha =  23.3006
  b =      10.7398    beta  =  23.3006
  c =      10.7398    gamma =  23.3006

  Initial cell volume =         170.167643 Angs**3

  Temperature of configuration =  0.000     K 

  Pressure of configuration =         0.000 GPa 

  Fractional coordinates of asymmetric unit :

--------------------------------------------------------------------------------
   No.  Atomic       x           y          z         Charge      Occupancy
        Label      (Frac)      (Frac)     (Frac)        (e)         (Frac)  
--------------------------------------------------------------------------------
      1 Sb    c    0.396797    0.396797    0.396797      0.0000    1.000000    
      2 Sb    c    0.603203    0.603203    0.603203      0.0000    1.000000    
      3 Te1   c    0.960000    0.960000    0.960000     -0.0000    1.000000    
      4 Te2   c    0.784571    0.784571    0.784571     -0.0000    1.000000    
      5 Te2   c    0.215429    0.215429    0.215429     -0.0000    1.000000    
--------------------------------------------------------------------------------



********************************************************************************
*  Input for Configuration =  35                                               *
********************************************************************************

  Formula = Sb2Te3                                                      

  Number of irreducible atoms/shells =       5


  Total number atoms/shells =       5

  Dimensionality = 3               :  Bulk   



  Cartesian lattice vectors (Angstroms) :

       -2.504286    0.000000   10.443767
        1.252143   -2.168775   10.443767
        1.252143    2.168775   10.443767

  Cell parameters (Angstroms/Degrees):

  a =      10.7398    alpha =  23.3006
  b =      10.7398    beta  =  23.3006
  c =      10.7398    gamma =  23.3006

  Initial cell volume =         170.167643 Angs**3

  Temperature of configuration =  0.000     K 

  Pressure of configuration =         0.000 GPa 

  Fractional coordinates of asymmetric unit :

--------------------------------------------------------------------------------
   No.  Atomic       x           y          z         Charge      Occupancy
        Label      (Frac)      (Frac)     (Frac)        (e)         (Frac)  
--------------------------------------------------------------------------------
      1 Sb    c    0.396797    0.396797    0.396797      0.0000    1.000000    
      2 Sb    c    0.603203    0.603203    0.603203      0.0000    1.000000    
      3 Te1   c    0.970000    0.970000    0.970000     -0.0000    1.000000    
      4 Te2   c    0.784571    0.784571    0.784571     -0.0000    1.000000    
      5 Te2   c    0.215429    0.215429    0.215429     -0.0000    1.000000    
--------------------------------------------------------------------------------



********************************************************************************
*  Input for Configuration =  36                                               *
********************************************************************************

  Formula = Sb2Te3                                                      

  Number of irreducible atoms/shells =       5


  Total number atoms/shells =       5

  Dimensionality = 3               :  Bulk   



  Cartesian lattice vectors (Angstroms) :

       -2.504286    0.000000   10.443767
        1.252143   -2.168775   10.443767
        1.252143    2.168775   10.443767

  Cell parameters (Angstroms/Degrees):

  a =      10.7398    alpha =  23.3006
  b =      10.7398    beta  =  23.3006
  c =      10.7398    gamma =  23.3006

  Initial cell volume =         170.167643 Angs**3

  Temperature of configuration =  0.000     K 

  Pressure of configuration =         0.000 GPa 

  Fractional coordinates of asymmetric unit :

--------------------------------------------------------------------------------
   No.  Atomic       x           y          z         Charge      Occupancy
        Label      (Frac)      (Frac)     (Frac)        (e)         (Frac)  
--------------------------------------------------------------------------------
      1 Sb    c    0.396797    0.396797    0.396797      0.0000    1.000000    
      2 Sb    c    0.603203    0.603203    0.603203      0.0000    1.000000    
      3 Te1   c    0.980000    0.980000    0.980000     -0.0000    1.000000    
      4 Te2   c    0.784571    0.784571    0.784571     -0.0000    1.000000    
      5 Te2   c    0.215429    0.215429    0.215429     -0.0000    1.000000    
--------------------------------------------------------------------------------



********************************************************************************
*  Input for Configuration =  37                                               *
********************************************************************************

  Formula = Sb2Te3                                                      

  Number of irreducible atoms/shells =       5


  Total number atoms/shells =       5

  Dimensionality = 3               :  Bulk   



  Cartesian lattice vectors (Angstroms) :

       -2.504286    0.000000   10.443767
        1.252143   -2.168775   10.443767
        1.252143    2.168775   10.443767

  Cell parameters (Angstroms/Degrees):

  a =      10.7398    alpha =  23.3006
  b =      10.7398    beta  =  23.3006
  c =      10.7398    gamma =  23.3006

  Initial cell volume =         170.167643 Angs**3

  Temperature of configuration =  0.000     K 

  Pressure of configuration =         0.000 GPa 

  Fractional coordinates of asymmetric unit :

--------------------------------------------------------------------------------
   No.  Atomic       x           y          z         Charge      Occupancy
        Label      (Frac)      (Frac)     (Frac)        (e)         (Frac)  
--------------------------------------------------------------------------------
      1 Sb    c    0.396797    0.396797    0.396797      0.0000    1.000000    
      2 Sb    c    0.603203    0.603203    0.603203      0.0000    1.000000    
      3 Te1   c    0.990000    0.990000    0.990000     -0.0000    1.000000    
      4 Te2   c    0.784571    0.784571    0.784571     -0.0000    1.000000    
      5 Te2   c    0.215429    0.215429    0.215429     -0.0000    1.000000    
--------------------------------------------------------------------------------



********************************************************************************
*  Input for Configuration =  38                                               *
********************************************************************************

  Formula = Sb2Te3                                                      

  Number of irreducible atoms/shells =       5


  Total number atoms/shells =       5

  Dimensionality = 3               :  Bulk   



  Cartesian lattice vectors (Angstroms) :

       -2.504286    0.000000   10.443767
        1.252143   -2.168775   10.443767
        1.252143    2.168775   10.443767

  Cell parameters (Angstroms/Degrees):

  a =      10.7398    alpha =  23.3006
  b =      10.7398    beta  =  23.3006
  c =      10.7398    gamma =  23.3006

  Initial cell volume =         170.167643 Angs**3

  Temperature of configuration =  0.000     K 

  Pressure of configuration =         0.000 GPa 

  Fractional coordinates of asymmetric unit :

--------------------------------------------------------------------------------
   No.  Atomic       x           y          z         Charge      Occupancy
        Label      (Frac)      (Frac)     (Frac)        (e)         (Frac)  
--------------------------------------------------------------------------------
      1 Sb    c    0.396797    0.396797    0.396797      0.0000    1.000000    
      2 Sb    c    0.603203    0.603203    0.603203      0.0000    1.000000    
      3 Te1   c    0.000000    0.000000    0.000000     -0.0000    1.000000    
      4 Te2   c    0.784571    0.784571    0.784571     -0.0000    1.000000    
      5 Te2   c    0.215429    0.215429    0.215429     -0.0000    1.000000    
--------------------------------------------------------------------------------



********************************************************************************
*  Input for Configuration =  39                                               *
********************************************************************************

  Formula = Sb2Te3                                                      

  Number of irreducible atoms/shells =       5


  Total number atoms/shells =       5

  Dimensionality = 3               :  Bulk   



  Cartesian lattice vectors (Angstroms) :

       -2.504286    0.000000   10.443767
        1.252143   -2.168775   10.443767
        1.252143    2.168775   10.443767

  Cell parameters (Angstroms/Degrees):

  a =      10.7398    alpha =  23.3006
  b =      10.7398    beta  =  23.3006
  c =      10.7398    gamma =  23.3006

  Initial cell volume =         170.167643 Angs**3

  Temperature of configuration =  0.000     K 

  Pressure of configuration =         0.000 GPa 

  Fractional coordinates of asymmetric unit :

--------------------------------------------------------------------------------
   No.  Atomic       x           y          z         Charge      Occupancy
        Label      (Frac)      (Frac)     (Frac)        (e)         (Frac)  
--------------------------------------------------------------------------------
      1 Sb    c    0.396797    0.396797    0.396797      0.0000    1.000000    
      2 Sb    c    0.603203    0.603203    0.603203      0.0000    1.000000    
      3 Te1   c    0.010000    0.010000    0.010000     -0.0000    1.000000    
      4 Te2   c    0.784571    0.784571    0.784571     -0.0000    1.000000    
      5 Te2   c    0.215429    0.215429    0.215429     -0.0000    1.000000    
--------------------------------------------------------------------------------



********************************************************************************
*  Input for Configuration =  40                                               *
********************************************************************************

  Formula = Sb2Te3                                                      

  Number of irreducible atoms/shells =       5


  Total number atoms/shells =       5

  Dimensionality = 3               :  Bulk   



  Cartesian lattice vectors (Angstroms) :

       -2.504286    0.000000   10.443767
        1.252143   -2.168775   10.443767
        1.252143    2.168775   10.443767

  Cell parameters (Angstroms/Degrees):

  a =      10.7398    alpha =  23.3006
  b =      10.7398    beta  =  23.3006
  c =      10.7398    gamma =  23.3006

  Initial cell volume =         170.167643 Angs**3

  Temperature of configuration =  0.000     K 

  Pressure of configuration =         0.000 GPa 

  Fractional coordinates of asymmetric unit :

--------------------------------------------------------------------------------
   No.  Atomic       x           y          z         Charge      Occupancy
        Label      (Frac)      (Frac)     (Frac)        (e)         (Frac)  
--------------------------------------------------------------------------------
      1 Sb    c    0.396797    0.396797    0.396797      0.0000    1.000000    
      2 Sb    c    0.603203    0.603203    0.603203      0.0000    1.000000    
      3 Te1   c    0.020000    0.020000    0.020000     -0.0000    1.000000    
      4 Te2   c    0.784571    0.784571    0.784571     -0.0000    1.000000    
      5 Te2   c    0.215429    0.215429    0.215429     -0.0000    1.000000    
--------------------------------------------------------------------------------



********************************************************************************
*  Input for Configuration =  41                                               *
********************************************************************************

  Formula = Sb2Te3                                                      

  Number of irreducible atoms/shells =       5


  Total number atoms/shells =       5

  Dimensionality = 3               :  Bulk   



  Cartesian lattice vectors (Angstroms) :

       -2.504286    0.000000   10.443767
        1.252143   -2.168775   10.443767
        1.252143    2.168775   10.443767

  Cell parameters (Angstroms/Degrees):

  a =      10.7398    alpha =  23.3006
  b =      10.7398    beta  =  23.3006
  c =      10.7398    gamma =  23.3006

  Initial cell volume =         170.167643 Angs**3

  Temperature of configuration =  0.000     K 

  Pressure of configuration =         0.000 GPa 

  Fractional coordinates of asymmetric unit :

--------------------------------------------------------------------------------
   No.  Atomic       x           y          z         Charge      Occupancy
        Label      (Frac)      (Frac)     (Frac)        (e)         (Frac)  
--------------------------------------------------------------------------------
      1 Sb    c    0.396797    0.396797    0.396797      0.0000    1.000000    
      2 Sb    c    0.603203    0.603203    0.603203      0.0000    1.000000    
      3 Te1   c    0.030000    0.030000    0.030000     -0.0000    1.000000    
      4 Te2   c    0.784571    0.784571    0.784571     -0.0000    1.000000    
      5 Te2   c    0.215429    0.215429    0.215429     -0.0000    1.000000    
--------------------------------------------------------------------------------



********************************************************************************
*  Input for Configuration =  42                                               *
********************************************************************************

  Formula = Sb2Te3                                                      

  Number of irreducible atoms/shells =       5


  Total number atoms/shells =       5

  Dimensionality = 3               :  Bulk   



  Cartesian lattice vectors (Angstroms) :

       -2.504286    0.000000   10.443767
        1.252143   -2.168775   10.443767
        1.252143    2.168775   10.443767

  Cell parameters (Angstroms/Degrees):

  a =      10.7398    alpha =  23.3006
  b =      10.7398    beta  =  23.3006
  c =      10.7398    gamma =  23.3006

  Initial cell volume =         170.167643 Angs**3

  Temperature of configuration =  0.000     K 

  Pressure of configuration =         0.000 GPa 

  Fractional coordinates of asymmetric unit :

--------------------------------------------------------------------------------
   No.  Atomic       x           y          z         Charge      Occupancy
        Label      (Frac)      (Frac)     (Frac)        (e)         (Frac)  
--------------------------------------------------------------------------------
      1 Sb    c    0.396797    0.396797    0.396797      0.0000    1.000000    
      2 Sb    c    0.603203    0.603203    0.603203      0.0000    1.000000    
      3 Te1   c    0.040000    0.040000    0.040000     -0.0000    1.000000    
      4 Te2   c    0.784571    0.784571    0.784571     -0.0000    1.000000    
      5 Te2   c    0.215429    0.215429    0.215429     -0.0000    1.000000    
--------------------------------------------------------------------------------



********************************************************************************
*  Input for Configuration =  43                                               *
********************************************************************************

  Formula = Sb2Te3                                                      

  Number of irreducible atoms/shells =       5


  Total number atoms/shells =       5

  Dimensionality = 3               :  Bulk   



  Cartesian lattice vectors (Angstroms) :

       -2.504286    0.000000   10.443767
        1.252143   -2.168775   10.443767
        1.252143    2.168775   10.443767

  Cell parameters (Angstroms/Degrees):

  a =      10.7398    alpha =  23.3006
  b =      10.7398    beta  =  23.3006
  c =      10.7398    gamma =  23.3006

  Initial cell volume =         170.167643 Angs**3

  Temperature of configuration =  0.000     K 

  Pressure of configuration =         0.000 GPa 

  Fractional coordinates of asymmetric unit :

--------------------------------------------------------------------------------
   No.  Atomic       x           y          z         Charge      Occupancy
        Label      (Frac)      (Frac)     (Frac)        (e)         (Frac)  
--------------------------------------------------------------------------------
      1 Sb    c    0.396797    0.396797    0.396797      0.0000    1.000000    
      2 Sb    c    0.603203    0.603203    0.603203      0.0000    1.000000    
      3 Te1   c    0.050000    0.050000    0.050000     -0.0000    1.000000    
      4 Te2   c    0.784571    0.784571    0.784571     -0.0000    1.000000    
      5 Te2   c    0.215429    0.215429    0.215429     -0.0000    1.000000    
--------------------------------------------------------------------------------



********************************************************************************
*  Input for Configuration =  44                                               *
********************************************************************************

  Formula = Sb2Te3                                                      

  Number of irreducible atoms/shells =       5


  Total number atoms/shells =       5

  Dimensionality = 3               :  Bulk   



  Cartesian lattice vectors (Angstroms) :

       -2.504286    0.000000   10.443767
        1.252143   -2.168775   10.443767
        1.252143    2.168775   10.443767

  Cell parameters (Angstroms/Degrees):

  a =      10.7398    alpha =  23.3006
  b =      10.7398    beta  =  23.3006
  c =      10.7398    gamma =  23.3006

  Initial cell volume =         170.167643 Angs**3

  Temperature of configuration =  0.000     K 

  Pressure of configuration =         0.000 GPa 

  Fractional coordinates of asymmetric unit :

--------------------------------------------------------------------------------
   No.  Atomic       x           y          z         Charge      Occupancy
        Label      (Frac)      (Frac)     (Frac)        (e)         (Frac)  
--------------------------------------------------------------------------------
      1 Sb    c    0.396797    0.396797    0.396797      0.0000    1.000000    
      2 Sb    c    0.603203    0.603203    0.603203      0.0000    1.000000    
      3 Te1   c    0.060000    0.060000    0.060000     -0.0000    1.000000    
      4 Te2   c    0.784571    0.784571    0.784571     -0.0000    1.000000    
      5 Te2   c    0.215429    0.215429    0.215429     -0.0000    1.000000    
--------------------------------------------------------------------------------



********************************************************************************
*  Input for Configuration =  45                                               *
********************************************************************************

  Formula = Sb2Te3                                                      

  Number of irreducible atoms/shells =       5


  Total number atoms/shells =       5

  Dimensionality = 3               :  Bulk   



  Cartesian lattice vectors (Angstroms) :

       -2.504286    0.000000   10.443767
        1.252143   -2.168775   10.443767
        1.252143    2.168775   10.443767

[...]
-------------------------------------------------------------------------------
  Stress axis :                     x             y             z
-------------------------------------------------------------------------------
  Youngs Moduli (GPa)     =       1.93286       1.93286       2.03596
-------------------------------------------------------------------------------
  Poissons Ratio (x)      =                    -0.61500      -0.51596
  Poissons Ratio (y)      =      -0.61500                    -0.51596
  Poissons Ratio (z)      =      -0.48983      -0.48983
-------------------------------------------------------------------------------


  Piezoelectric Strain Matrix: (Units=C/m**2)

-------------------------------------------------------------------------------
  Indices      1         2         3         4         5         6    
-------------------------------------------------------------------------------
       x    -0.00000  -0.00000  -0.00000  -0.00000  -0.00000  -0.00000
       y    -0.00000  -0.00000  -0.00000  -0.00000  -0.00000  -0.00000
       z    -0.00000  -0.00000  -0.00000  -0.00000  -0.00000  -0.00000
-------------------------------------------------------------------------------


  Piezoelectric Stress Matrix: (Units=10**-11 C/N)

-------------------------------------------------------------------------------
  Indices      1         2         3         4         5         6    
-------------------------------------------------------------------------------
       x     0.00000   0.00000   0.00000   0.00000   0.00000   0.00000
       y     0.00000   0.00000   0.00000   0.00000   0.00000   0.00000
       z     0.00000   0.00000   0.00000   0.00000   0.00000   0.00000
-------------------------------------------------------------------------------


  Static dielectric constant tensor : 

-------------------------------------------------------------------------------
              x         y         z
-------------------------------------------------------------------------------
       x     1.00000   0.00000   0.00000
       y     0.00000   1.00000   0.00000
       z     0.00000   0.00000   1.00000
--------------------------------------------------------------------------------

  Static refractive indices : 

-------------------------------------------------------------------------------
    1 =    1.00000      2 =    1.00000      3 =    1.00000
-------------------------------------------------------------------------------


  Time to end of properties =     703.2039 seconds


********************************************************************************
*  Output for configuration 150                                                *
********************************************************************************



!!!!!!!!!!!!!!!!!!!!!!!!!!!!!!!!!!!!!!!!!!!!!!!!!!!!!!!!!!!!!!!!!!!!!!!!!!!!!!!!
!! WARNING : No variables to optimise - single point performed
!!!!!!!!!!!!!!!!!!!!!!!!!!!!!!!!!!!!!!!!!!!!!!!!!!!!!!!!!!!!!!!!!!!!!!!!!!!!!!!!


  Components of energy : 

--------------------------------------------------------------------------------
  Interatomic potentials     =          -3.30693255 eV
  Monopole - monopole (real) =           0.00000000 eV
  Monopole - monopole (recip)=           0.00000000 eV
  Monopole - monopole (total)=           0.00000000 eV
  Energy shift               =         -14.05025647 eV
--------------------------------------------------------------------------------
  Total lattice energy       =         -17.35718902 eV
--------------------------------------------------------------------------------
  Total lattice energy       =           -1674.7034 kJ/(mole unit cells)
--------------------------------------------------------------------------------


  Elastic Constant Matrix: (Units=GPa)

-------------------------------------------------------------------------------
  Indices      1         2         3         4         5         6    
-------------------------------------------------------------------------------
       1     38.0034   17.6051   22.8427   -4.8026   -1.3781   -2.3212
       2     17.6051   33.9291   14.3022    6.5371    9.7908    3.1985
       3     22.8427   14.3022   28.3289   -1.4020   -6.7999    1.8391
       4     -4.8026    6.5371   -1.4020   13.5285    1.3302    9.4887
       5     -1.3781    9.7908   -6.7999    1.3302   19.7058   -4.8649
       6     -2.3212    3.1985    1.8391    9.4887   -4.8649   14.4003
-------------------------------------------------------------------------------


  Elastic Compliance Matrix: (Units=1/GPa)

-------------------------------------------------------------------------------
  Indices      1         2         3         4         5         6    
-------------------------------------------------------------------------------
       1    0.063557 -0.022874 -0.038145  0.028006  0.001295  0.002181
       2   -0.022874  0.080828 -0.036663 -0.038905 -0.054158 -0.009619
       3   -0.038145 -0.036663  0.096638  0.009911  0.048069 -0.000638
       4    0.028006 -0.038905  0.009911  0.187890 -0.017024 -0.117666
       5    0.001295 -0.054158  0.048069 -0.017024  0.108833  0.054084
       6    0.002181 -0.009619 -0.000638 -0.117666  0.054084  0.167816
-------------------------------------------------------------------------------

 Mechanical properties :

-------------------------------------------------------------------------------
  Convention :                    Reuss         Voigt         Hill
-------------------------------------------------------------------------------
  Bulk  Modulus (GPa)     =      21.90239      23.30682      22.60461
  Shear Modulus (GPa)     =       5.45764      12.56101       9.00932
-------------------------------------------------------------------------------
  Velocity S-wave (km/s)  =       2.98820       4.53335       3.83931
  Velocity P-wave (km/s)  =       6.90947       8.09534       7.52580
-------------------------------------------------------------------------------
  Compressibility (1/GPa) =    0.04565712
-------------------------------------------------------------------------------
  Stress axis :                     x             y             z
-------------------------------------------------------------------------------
  Youngs Moduli (GPa)     =      15.73389      12.37203      10.34790
-------------------------------------------------------------------------------
  Poissons Ratio (x)      =                     0.28300       0.39472
  Poissons Ratio (y)      =       0.35990                     0.37939
  Poissons Ratio (z)      =       0.60017       0.45360
-------------------------------------------------------------------------------


  Piezoelectric Strain Matrix: (Units=C/m**2)

-------------------------------------------------------------------------------
  Indices      1         2         3         4         5         6    
-------------------------------------------------------------------------------
       x    -0.00000  -0.00000  -0.00000  -0.00000  -0.00000  -0.00000
       y    -0.00000  -0.00000  -0.00000  -0.00000  -0.00000  -0.00000
       z    -0.00000  -0.00000  -0.00000  -0.00000  -0.00000  -0.00000
-------------------------------------------------------------------------------


  Piezoelectric Stress Matrix: (Units=10**-11 C/N)

-------------------------------------------------------------------------------
  Indices      1         2         3         4         5         6    
-------------------------------------------------------------------------------
       x     0.00000   0.00000   0.00000   0.00000   0.00000   0.00000
       y     0.00000   0.00000   0.00000   0.00000   0.00000   0.00000
       z     0.00000   0.00000   0.00000   0.00000   0.00000   0.00000
-------------------------------------------------------------------------------


  Static dielectric constant tensor : 

-------------------------------------------------------------------------------
              x         y         z
-------------------------------------------------------------------------------
       x     1.00000   0.00000   0.00000
       y     0.00000   1.00000   0.00000
       z     0.00000   0.00000   1.00000
--------------------------------------------------------------------------------

  Static refractive indices : 

-------------------------------------------------------------------------------
    1 =    1.00000      2 =    1.00000      3 =    1.00000
-------------------------------------------------------------------------------


  Time to end of properties =     703.2079 seconds


********************************************************************************
*  Output for configuration 151                                                *
********************************************************************************


  Components of energy : 

--------------------------------------------------------------------------------
  Interatomic potentials     =          -3.30693255 eV
  Monopole - monopole (real) =           0.00000000 eV
  Monopole - monopole (recip)=           0.00000000 eV
  Monopole - monopole (total)=           0.00000000 eV
  Energy shift               =         -14.05025647 eV
--------------------------------------------------------------------------------
  Total lattice energy       =         -17.35718902 eV
--------------------------------------------------------------------------------
  Total lattice energy       =           -1674.7034 kJ/(mole unit cells)
--------------------------------------------------------------------------------


  Number of variables =      6

  Maximum number of calculations  =          1000
  Maximum Hessian update interval =            10
  Maximum step size               =   1.000000000
  Maximum parameter tolerance     =   0.000010000
  Maximum function  tolerance     =   0.000010000
  Maximum gradient  tolerance     =   0.001000000
  Maximum gradient  component     =   0.010000000

  Symmetry not applied to optimisation

  Cell parameters to be optimised using strains

  Newton-Raphson optimiser to be used

  BFGS hessian update to be used

  Dumpfile to be written after every cycle

  Start of bulk optimisation :

  Cycle:      0 Energy:       -17.357189  Gnorm:      0.407183  CPU:  703.236
  ** Hessian calculated **
  Cycle:      1 Energy:       -17.393987  Gnorm:      0.077825  CPU:  703.240
  Cycle:      2 Energy:       -17.394623  Gnorm:      0.013588  CPU:  703.272
  Cycle:      3 Energy:       -17.394646  Gnorm:      0.000595  CPU:  703.300


  **** Optimisation achieved ****


  Final energy =     -17.39464648 eV
  Final Gnorm  =       0.00019834

  Components of energy : 

--------------------------------------------------------------------------------
  Interatomic potentials     =          -3.34439000 eV
  Monopole - monopole (real) =           0.00000000 eV
  Monopole - monopole (recip)=           0.00000000 eV
  Monopole - monopole (total)=           0.00000000 eV
  Energy shift               =         -14.05025647 eV
--------------------------------------------------------------------------------
  Total lattice energy       =         -17.39464648 eV
--------------------------------------------------------------------------------
  Total lattice energy       =           -1678.3175 kJ/(mole unit cells)
--------------------------------------------------------------------------------

  Final fractional coordinates of atoms :

--------------------------------------------------------------------------------
   No.  Atomic        x           y          z          Radius
        Label       (Frac)      (Frac)     (Frac)       (Angs) 
--------------------------------------------------------------------------------
     1  Sb    c     0.396797    0.396797    0.396797    0.000000
     2  Sb    c     0.603203    0.603203    0.603203    0.000000
     3  Te1   c     0.000000    0.000000    0.000000    0.000000
     4  Te2   c     0.784571    0.784571    0.784571    0.000000
     5  Te2   c     0.215429    0.215429    0.215429    0.000000
--------------------------------------------------------------------------------

  Final Cartesian lattice vectors (Angstroms) :

       11.032005    0.127298    0.075579
       10.182657    4.246743    0.075579
       10.182657    2.099461    3.692262


  Final cell parameters and derivatives :

--------------------------------------------------------------------------------
       a           11.032998 Angstrom     dE/de1(xx)    -0.000539 eV/strain
       b           11.032998 Angstrom     dE/de2(yy)    -0.000746 eV/strain
       c           11.032998 Angstrom     dE/de3(zz)    -0.000752 eV/strain
       alpha       21.977263 Degrees      dE/de4(yz)     0.000005 eV/strain
       beta        21.977263 Degrees      dE/de5(xz)     0.000026 eV/strain
       gamma       21.977263 Degrees      dE/de6(xy)     0.000045 eV/strain
--------------------------------------------------------------------------------

  Primitive cell volume =           164.891687 Angs**3

  Density of cell =      6.307244 g/cm**3

  Non-primitive cell volume =           164.891687 Angs**3


  Final internal derivatives :

--------------------------------------------------------------------------------
   No.  Atomic          x             y             z           Radius
        Label          (eV)          (eV)          (eV)        (eV/Angs)
--------------------------------------------------------------------------------
      1 Sb    c       0.000000      0.000000      0.000000      0.000000
      2 Sb    c       0.000000      0.000000      0.000000      0.000000
      3 Te1   c       0.000000      0.000000      0.000000      0.000000
      4 Te2   c       0.000000      0.000000      0.000000      0.000000
      5 Te2   c       0.000000      0.000000      0.000000      0.000000
--------------------------------------------------------------------------------
  Maximum abs         0.000000      0.000000      0.000000      0.000000
--------------------------------------------------------------------------------



  Elastic Constant Matrix: (Units=GPa)

-------------------------------------------------------------------------------
  Indices      1         2         3         4         5         6    
-------------------------------------------------------------------------------
       1     43.9722   20.6928   25.9092   -4.7831   -1.0080   -1.6978
       2     20.6928   37.6476   17.1806    6.6357    9.9931    3.0597
       3     25.9092   17.1806   31.9984   -1.4558   -7.0606    1.8796
       4     -4.7831    6.6357   -1.4558   14.0344    1.2539    9.6217
       5     -1.0080    9.9931   -7.0606    1.2539   19.8574   -4.8597
       6     -1.6978    3.0597    1.8796    9.6217   -4.8597   14.5575
-------------------------------------------------------------------------------


  Elastic Compliance Matrix: (Units=1/GPa)

-------------------------------------------------------------------------------
  Indices      1         2         3         4         5         6    
-------------------------------------------------------------------------------
       1    0.052808 -0.017997 -0.032191  0.026029 -0.002300 -0.003874
       2   -0.017997  0.073965 -0.037650 -0.036910 -0.050475 -0.005238
       3   -0.032191 -0.037650  0.088610  0.010053  0.048760  0.002351
       4    0.026029 -0.036910  0.010053  0.177360 -0.015347 -0.112853
       5   -0.002300 -0.050475  0.048760 -0.015347  0.106090  0.049604
       6   -0.003874 -0.005238  0.002351 -0.112853  0.049604  0.160187
-------------------------------------------------------------------------------

 Mechanical properties :

-------------------------------------------------------------------------------
  Convention :                    Reuss         Voigt         Hill
-------------------------------------------------------------------------------
  Bulk  Modulus (GPa)     =      25.18488      26.79817      25.99152
  Shear Modulus (GPa)     =       5.89669      13.01222       9.45446
-------------------------------------------------------------------------------
  Velocity S-wave (km/s)  =       3.05763       4.54209       3.87167
  Velocity P-wave (km/s)  =       7.23848       8.36632       7.82275
-------------------------------------------------------------------------------
  Compressibility (1/GPa) =    0.03970637
-------------------------------------------------------------------------------
  Stress axis :                     x             y             z
-------------------------------------------------------------------------------
  Youngs Moduli (GPa)     =      18.93666      13.51982      11.28536
-------------------------------------------------------------------------------
  Poissons Ratio (x)      =                     0.24332       0.36329
  Poissons Ratio (y)      =       0.34081                     0.42489
  Poissons Ratio (z)      =       0.60959       0.50902
-------------------------------------------------------------------------------


  Piezoelectric Strain Matrix: (Units=C/m**2)

-------------------------------------------------------------------------------
  Indices      1         2         3         4         5         6    
-------------------------------------------------------------------------------
       x    -0.00000  -0.00000  -0.00000  -0.00000  -0.00000  -0.00000
       y    -0.00000  -0.00000  -0.00000  -0.00000  -0.00000  -0.00000
       z    -0.00000  -0.00000  -0.00000  -0.00000  -0.00000  -0.00000
-------------------------------------------------------------------------------


  Piezoelectric Stress Matrix: (Units=10**-11 C/N)

-------------------------------------------------------------------------------
  Indices      1         2         3         4         5         6    
-------------------------------------------------------------------------------
       x     0.00000   0.00000   0.00000   0.00000   0.00000   0.00000
       y     0.00000   0.00000   0.00000   0.00000   0.00000   0.00000
       z     0.00000   0.00000   0.00000   0.00000   0.00000   0.00000
-------------------------------------------------------------------------------


  Static dielectric constant tensor : 

-------------------------------------------------------------------------------
              x         y         z
-------------------------------------------------------------------------------
       x     1.00000   0.00000   0.00000
       y     0.00000   1.00000   0.00000
       z     0.00000   0.00000   1.00000
--------------------------------------------------------------------------------

  Static refractive indices : 

-------------------------------------------------------------------------------
    1 =    1.00000      2 =    1.00000      3 =    1.00000
-------------------------------------------------------------------------------


  Time to end of optimisation =     703.3360 seconds


  Peak dynamic memory used =       1.79 MB 


  Timing analysis for GULP :

--------------------------------------------------------------------------------
  Task / Subroutine                                          Time (Seconds)
--------------------------------------------------------------------------------
  Calculation of real space energy and derivatives              681.3706
  Sum of squares for fitting                                     14.9049
  Global summation overhead                                       0.5360
--------------------------------------------------------------------------------
  Total CPU time                                                703.3360
--------------------------------------------------------------------------------


  Dump file written as sb2te3.res                                              



  **** GULP has completed with 150 warnings - beware! ****

  Job Finished at 10:16.08 21st June       2010                               

