********************************************************************************
*                       GENERAL UTILITY LATTICE PROGRAM                        *
*                                 Julian Gale                                  *
*                      Nanochemistry Research Institute                        *
*             Curtin University of Technology, Western Australia               *
********************************************************************************
* Version = 3.4.7 * Last modified =  21st July 2009                            *
********************************************************************************
*  fit          - perform fitting run                                          *
*  optimise     - perform optimisation run after fitting                       *
*  property     - calculate properties for final geometry                      *
*  fbfgs        - use full numerical Hessian in BFGS for fitting               *
********************************************************************************

  Job Started  at 21:06.23 21st June       2010                               

  Number of CPUs =     1


  Total number of configurations input =  58

********************************************************************************
*  Input for Configuration =   1                                               *
********************************************************************************

  Formula = Sb2Te3                                                      

  Number of irreducible atoms/shells =       5


  Total number atoms/shells =       5

  Dimensionality = 3               :  Bulk   



  Cartesian lattice vectors (Angstroms) :

       10.739800    0.000000    0.000000
        9.863930    4.248080    0.000000
        9.863930    2.033746    3.729619

  Cell parameters (Angstroms/Degrees):

  a =      10.7398    alpha =  23.3000
  b =      10.7398    beta  =  23.3000
  c =      10.7398    gamma =  23.3000

  Initial cell volume =         170.158355 Angs**3

  Temperature of configuration =  0.000     K 

  Pressure of configuration =         0.000 GPa 

  Fractional coordinates of asymmetric unit :

--------------------------------------------------------------------------------
   No.  Atomic       x           y          z         Charge      Occupancy
        Label      (Frac)      (Frac)     (Frac)        (e)         (Frac)  
--------------------------------------------------------------------------------
      1 Sb    c    0.401797    0.396797    0.396797      0.1090    1.000000    
      2 Sb    c    0.603203    0.603203    0.603203      0.1090    1.000000    
      3 Te1   c    0.000000    0.000000    0.000000      0.1600    1.000000    
      4 Te2   c    0.784571    0.784571    0.784571     -0.1890    1.000000    
      5 Te2   c    0.215429    0.215429    0.215429     -0.1890    1.000000    
--------------------------------------------------------------------------------



********************************************************************************
*  Input for Configuration =   2                                               *
********************************************************************************

  Formula = Sb2Te3                                                      

  Number of irreducible atoms/shells =       5


  Total number atoms/shells =       5

  Dimensionality = 3               :  Bulk   



  Cartesian lattice vectors (Angstroms) :

       10.739800    0.000000    0.000000
        9.863930    4.248080    0.000000
        9.863930    2.033746    3.729619

  Cell parameters (Angstroms/Degrees):

  a =      10.7398    alpha =  23.3000
  b =      10.7398    beta  =  23.3000
  c =      10.7398    gamma =  23.3000

  Initial cell volume =         170.158355 Angs**3

  Temperature of configuration =  0.000     K 

  Pressure of configuration =         0.000 GPa 

  Fractional coordinates of asymmetric unit :

--------------------------------------------------------------------------------
   No.  Atomic       x           y          z         Charge      Occupancy
        Label      (Frac)      (Frac)     (Frac)        (e)         (Frac)  
--------------------------------------------------------------------------------
      1 Sb    c    0.406797    0.396797    0.396797      0.1090    1.000000    
      2 Sb    c    0.603203    0.603203    0.603203      0.1090    1.000000    
      3 Te1   c    0.000000    0.000000    0.000000      0.1600    1.000000    
      4 Te2   c    0.784571    0.784571    0.784571     -0.1890    1.000000    
      5 Te2   c    0.215429    0.215429    0.215429     -0.1890    1.000000    
--------------------------------------------------------------------------------



********************************************************************************
*  Input for Configuration =   3                                               *
********************************************************************************

  Formula = Sb2Te3                                                      

  Number of irreducible atoms/shells =       5


  Total number atoms/shells =       5

  Dimensionality = 3               :  Bulk   



  Cartesian lattice vectors (Angstroms) :

       10.739800    0.000000    0.000000
        9.863930    4.248080    0.000000
        9.863930    2.033746    3.729619

  Cell parameters (Angstroms/Degrees):

  a =      10.7398    alpha =  23.3000
  b =      10.7398    beta  =  23.3000
  c =      10.7398    gamma =  23.3000

  Initial cell volume =         170.158355 Angs**3

  Temperature of configuration =  0.000     K 

  Pressure of configuration =         0.000 GPa 

  Fractional coordinates of asymmetric unit :

--------------------------------------------------------------------------------
   No.  Atomic       x           y          z         Charge      Occupancy
        Label      (Frac)      (Frac)     (Frac)        (e)         (Frac)  
--------------------------------------------------------------------------------
      1 Sb    c    0.411797    0.396797    0.396797      0.1090    1.000000    
      2 Sb    c    0.603203    0.603203    0.603203      0.1090    1.000000    
      3 Te1   c    0.000000    0.000000    0.000000      0.1600    1.000000    
      4 Te2   c    0.784571    0.784571    0.784571     -0.1890    1.000000    
      5 Te2   c    0.215429    0.215429    0.215429     -0.1890    1.000000    
--------------------------------------------------------------------------------



********************************************************************************
*  Input for Configuration =   4                                               *
********************************************************************************

  Formula = Sb2Te3                                                      

  Number of irreducible atoms/shells =       5


  Total number atoms/shells =       5

  Dimensionality = 3               :  Bulk   



  Cartesian lattice vectors (Angstroms) :

       10.739800    0.000000    0.000000
        9.863930    4.248080    0.000000
        9.863930    2.033746    3.729619

  Cell parameters (Angstroms/Degrees):

  a =      10.7398    alpha =  23.3000
  b =      10.7398    beta  =  23.3000
  c =      10.7398    gamma =  23.3000

  Initial cell volume =         170.158355 Angs**3

  Temperature of configuration =  0.000     K 

  Pressure of configuration =         0.000 GPa 

  Fractional coordinates of asymmetric unit :

--------------------------------------------------------------------------------
   No.  Atomic       x           y          z         Charge      Occupancy
        Label      (Frac)      (Frac)     (Frac)        (e)         (Frac)  
--------------------------------------------------------------------------------
      1 Sb    c    0.416797    0.396797    0.396797      0.1090    1.000000    
      2 Sb    c    0.603203    0.603203    0.603203      0.1090    1.000000    
      3 Te1   c    0.000000    0.000000    0.000000      0.1600    1.000000    
      4 Te2   c    0.784571    0.784571    0.784571     -0.1890    1.000000    
      5 Te2   c    0.215429    0.215429    0.215429     -0.1890    1.000000    
--------------------------------------------------------------------------------



********************************************************************************
*  Input for Configuration =   5                                               *
********************************************************************************

  Formula = Sb2Te3                                                      

  Number of irreducible atoms/shells =       5


  Total number atoms/shells =       5

  Dimensionality = 3               :  Bulk   



  Cartesian lattice vectors (Angstroms) :

       10.739800    0.000000    0.000000
        9.863930    4.248080    0.000000
        9.863930    2.033746    3.729619

  Cell parameters (Angstroms/Degrees):

  a =      10.7398    alpha =  23.3000
  b =      10.7398    beta  =  23.3000
  c =      10.7398    gamma =  23.3000

  Initial cell volume =         170.158355 Angs**3

  Temperature of configuration =  0.000     K 

  Pressure of configuration =         0.000 GPa 

  Fractional coordinates of asymmetric unit :

--------------------------------------------------------------------------------
   No.  Atomic       x           y          z         Charge      Occupancy
        Label      (Frac)      (Frac)     (Frac)        (e)         (Frac)  
--------------------------------------------------------------------------------
      1 Sb    c    0.421797    0.396797    0.396797      0.1090    1.000000    
      2 Sb    c    0.603203    0.603203    0.603203      0.1090    1.000000    
      3 Te1   c    0.000000    0.000000    0.000000      0.1600    1.000000    
      4 Te2   c    0.784571    0.784571    0.784571     -0.1890    1.000000    
      5 Te2   c    0.215429    0.215429    0.215429     -0.1890    1.000000    
--------------------------------------------------------------------------------



********************************************************************************
*  Input for Configuration =   6                                               *
********************************************************************************

  Formula = Sb2Te3                                                      

  Number of irreducible atoms/shells =       5


  Total number atoms/shells =       5

  Dimensionality = 3               :  Bulk   



  Cartesian lattice vectors (Angstroms) :

       10.739800    0.000000    0.000000
        9.863930    4.248080    0.000000
        9.863930    2.033746    3.729619

  Cell parameters (Angstroms/Degrees):

  a =      10.7398    alpha =  23.3000
  b =      10.7398    beta  =  23.3000
  c =      10.7398    gamma =  23.3000

  Initial cell volume =         170.158355 Angs**3

  Temperature of configuration =  0.000     K 

  Pressure of configuration =         0.000 GPa 

  Fractional coordinates of asymmetric unit :

--------------------------------------------------------------------------------
   No.  Atomic       x           y          z         Charge      Occupancy
        Label      (Frac)      (Frac)     (Frac)        (e)         (Frac)  
--------------------------------------------------------------------------------
      1 Sb    c    0.396797    0.401797    0.396797      0.1090    1.000000    
      2 Sb    c    0.603203    0.603203    0.603203      0.1090    1.000000    
      3 Te1   c    0.000000    0.000000    0.000000      0.1600    1.000000    
      4 Te2   c    0.784571    0.784571    0.784571     -0.1890    1.000000    
      5 Te2   c    0.215429    0.215429    0.215429     -0.1890    1.000000    
--------------------------------------------------------------------------------



********************************************************************************
*  Input for Configuration =   7                                               *
********************************************************************************

  Formula = Sb2Te3                                                      

  Number of irreducible atoms/shells =       5


  Total number atoms/shells =       5

  Dimensionality = 3               :  Bulk   



  Cartesian lattice vectors (Angstroms) :

       10.739800    0.000000    0.000000
        9.863930    4.248080    0.000000
        9.863930    2.033746    3.729619

  Cell parameters (Angstroms/Degrees):

  a =      10.7398    alpha =  23.3000
  b =      10.7398    beta  =  23.3000
  c =      10.7398    gamma =  23.3000

  Initial cell volume =         170.158355 Angs**3

  Temperature of configuration =  0.000     K 

  Pressure of configuration =         0.000 GPa 

  Fractional coordinates of asymmetric unit :

--------------------------------------------------------------------------------
   No.  Atomic       x           y          z         Charge      Occupancy
        Label      (Frac)      (Frac)     (Frac)        (e)         (Frac)  
--------------------------------------------------------------------------------
      1 Sb    c    0.396797    0.406797    0.396797      0.1090    1.000000    
      2 Sb    c    0.603203    0.603203    0.603203      0.1090    1.000000    
      3 Te1   c    0.000000    0.000000    0.000000      0.1600    1.000000    
      4 Te2   c    0.784571    0.784571    0.784571     -0.1890    1.000000    
      5 Te2   c    0.215429    0.215429    0.215429     -0.1890    1.000000    
--------------------------------------------------------------------------------



********************************************************************************
*  Input for Configuration =   8                                               *
********************************************************************************

  Formula = Sb2Te3                                                      

  Number of irreducible atoms/shells =       5


  Total number atoms/shells =       5

  Dimensionality = 3               :  Bulk   



  Cartesian lattice vectors (Angstroms) :

       10.739800    0.000000    0.000000
        9.863930    4.248080    0.000000
        9.863930    2.033746    3.729619

  Cell parameters (Angstroms/Degrees):

  a =      10.7398    alpha =  23.3000
  b =      10.7398    beta  =  23.3000
  c =      10.7398    gamma =  23.3000

  Initial cell volume =         170.158355 Angs**3

  Temperature of configuration =  0.000     K 

  Pressure of configuration =         0.000 GPa 

  Fractional coordinates of asymmetric unit :

--------------------------------------------------------------------------------
   No.  Atomic       x           y          z         Charge      Occupancy
        Label      (Frac)      (Frac)     (Frac)        (e)         (Frac)  
--------------------------------------------------------------------------------
      1 Sb    c    0.396797    0.411797    0.396797      0.1090    1.000000    
      2 Sb    c    0.603203    0.603203    0.603203      0.1090    1.000000    
      3 Te1   c    0.000000    0.000000    0.000000      0.1600    1.000000    
      4 Te2   c    0.784571    0.784571    0.784571     -0.1890    1.000000    
      5 Te2   c    0.215429    0.215429    0.215429     -0.1890    1.000000    
--------------------------------------------------------------------------------



********************************************************************************
*  Input for Configuration =   9                                               *
********************************************************************************

  Formula = Sb2Te3                                                      

  Number of irreducible atoms/shells =       5


  Total number atoms/shells =       5

  Dimensionality = 3               :  Bulk   



  Cartesian lattice vectors (Angstroms) :

       10.739800    0.000000    0.000000
        9.863930    4.248080    0.000000
        9.863930    2.033746    3.729619

  Cell parameters (Angstroms/Degrees):

  a =      10.7398    alpha =  23.3000
  b =      10.7398    beta  =  23.3000
  c =      10.7398    gamma =  23.3000

  Initial cell volume =         170.158355 Angs**3

  Temperature of configuration =  0.000     K 

  Pressure of configuration =         0.000 GPa 

  Fractional coordinates of asymmetric unit :

--------------------------------------------------------------------------------
   No.  Atomic       x           y          z         Charge      Occupancy
        Label      (Frac)      (Frac)     (Frac)        (e)         (Frac)  
--------------------------------------------------------------------------------
      1 Sb    c    0.396797    0.416797    0.396797      0.1090    1.000000    
      2 Sb    c    0.603203    0.603203    0.603203      0.1090    1.000000    
      3 Te1   c    0.000000    0.000000    0.000000      0.1600    1.000000    
      4 Te2   c    0.784571    0.784571    0.784571     -0.1890    1.000000    
      5 Te2   c    0.215429    0.215429    0.215429     -0.1890    1.000000    
--------------------------------------------------------------------------------



********************************************************************************
*  Input for Configuration =  10                                               *
********************************************************************************

  Formula = Sb2Te3                                                      

  Number of irreducible atoms/shells =       5


  Total number atoms/shells =       5

  Dimensionality = 3               :  Bulk   



  Cartesian lattice vectors (Angstroms) :

       10.739800    0.000000    0.000000
        9.863930    4.248080    0.000000
        9.863930    2.033746    3.729619

  Cell parameters (Angstroms/Degrees):

  a =      10.7398    alpha =  23.3000
  b =      10.7398    beta  =  23.3000
  c =      10.7398    gamma =  23.3000

  Initial cell volume =         170.158355 Angs**3

  Temperature of configuration =  0.000     K 

  Pressure of configuration =         0.000 GPa 

  Fractional coordinates of asymmetric unit :

--------------------------------------------------------------------------------
   No.  Atomic       x           y          z         Charge      Occupancy
        Label      (Frac)      (Frac)     (Frac)        (e)         (Frac)  
--------------------------------------------------------------------------------
      1 Sb    c    0.396797    0.421797    0.396797      0.1090    1.000000    
      2 Sb    c    0.603203    0.603203    0.603203      0.1090    1.000000    
      3 Te1   c    0.000000    0.000000    0.000000      0.1600    1.000000    
      4 Te2   c    0.784571    0.784571    0.784571     -0.1890    1.000000    
      5 Te2   c    0.215429    0.215429    0.215429     -0.1890    1.000000    
--------------------------------------------------------------------------------



********************************************************************************
*  Input for Configuration =  11                                               *
********************************************************************************

  Formula = Sb2Te3                                                      

  Number of irreducible atoms/shells =       5


  Total number atoms/shells =       5

  Dimensionality = 3               :  Bulk   



  Cartesian lattice vectors (Angstroms) :

       10.739800    0.000000    0.000000
        9.863930    4.248080    0.000000
        9.863930    2.033746    3.729619

  Cell parameters (Angstroms/Degrees):

  a =      10.7398    alpha =  23.3000
  b =      10.7398    beta  =  23.3000
  c =      10.7398    gamma =  23.3000

  Initial cell volume =         170.158355 Angs**3

  Temperature of configuration =  0.000     K 

  Pressure of configuration =         0.000 GPa 

  Fractional coordinates of asymmetric unit :

--------------------------------------------------------------------------------
   No.  Atomic       x           y          z         Charge      Occupancy
        Label      (Frac)      (Frac)     (Frac)        (e)         (Frac)  
--------------------------------------------------------------------------------
      1 Sb    c    0.396797    0.396797    0.401797      0.1090    1.000000    
      2 Sb    c    0.603203    0.603203    0.603203      0.1090    1.000000    
      3 Te1   c    0.000000    0.000000    0.000000      0.1600    1.000000    
      4 Te2   c    0.784571    0.784571    0.784571     -0.1890    1.000000    
      5 Te2   c    0.215429    0.215429    0.215429     -0.1890    1.000000    
--------------------------------------------------------------------------------



********************************************************************************
*  Input for Configuration =  12                                               *
********************************************************************************

  Formula = Sb2Te3                                                      

  Number of irreducible atoms/shells =       5


  Total number atoms/shells =       5

  Dimensionality = 3               :  Bulk   



  Cartesian lattice vectors (Angstroms) :

       10.739800    0.000000    0.000000
        9.863930    4.248080    0.000000
        9.863930    2.033746    3.729619

  Cell parameters (Angstroms/Degrees):

  a =      10.7398    alpha =  23.3000
  b =      10.7398    beta  =  23.3000
  c =      10.7398    gamma =  23.3000

  Initial cell volume =         170.158355 Angs**3

  Temperature of configuration =  0.000     K 

  Pressure of configuration =         0.000 GPa 

  Fractional coordinates of asymmetric unit :

--------------------------------------------------------------------------------
   No.  Atomic       x           y          z         Charge      Occupancy
        Label      (Frac)      (Frac)     (Frac)        (e)         (Frac)  
--------------------------------------------------------------------------------
      1 Sb    c    0.396797    0.396797    0.406797      0.1090    1.000000    
      2 Sb    c    0.603203    0.603203    0.603203      0.1090    1.000000    
      3 Te1   c    0.000000    0.000000    0.000000      0.1600    1.000000    
      4 Te2   c    0.784571    0.784571    0.784571     -0.1890    1.000000    
      5 Te2   c    0.215429    0.215429    0.215429     -0.1890    1.000000    
--------------------------------------------------------------------------------



********************************************************************************
*  Input for Configuration =  13                                               *
********************************************************************************

  Formula = Sb2Te3                                                      

  Number of irreducible atoms/shells =       5


  Total number atoms/shells =       5

  Dimensionality = 3               :  Bulk   



  Cartesian lattice vectors (Angstroms) :

       10.739800    0.000000    0.000000
        9.863930    4.248080    0.000000
        9.863930    2.033746    3.729619

  Cell parameters (Angstroms/Degrees):

  a =      10.7398    alpha =  23.3000
  b =      10.7398    beta  =  23.3000
  c =      10.7398    gamma =  23.3000

  Initial cell volume =         170.158355 Angs**3

  Temperature of configuration =  0.000     K 

  Pressure of configuration =         0.000 GPa 

  Fractional coordinates of asymmetric unit :

--------------------------------------------------------------------------------
   No.  Atomic       x           y          z         Charge      Occupancy
        Label      (Frac)      (Frac)     (Frac)        (e)         (Frac)  
--------------------------------------------------------------------------------
      1 Sb    c    0.396797    0.396797    0.411797      0.1090    1.000000    
      2 Sb    c    0.603203    0.603203    0.603203      0.1090    1.000000    
      3 Te1   c    0.000000    0.000000    0.000000      0.1600    1.000000    
      4 Te2   c    0.784571    0.784571    0.784571     -0.1890    1.000000    
      5 Te2   c    0.215429    0.215429    0.215429     -0.1890    1.000000    
--------------------------------------------------------------------------------



********************************************************************************
*  Input for Configuration =  14                                               *
********************************************************************************

  Formula = Sb2Te3                                                      

  Number of irreducible atoms/shells =       5


  Total number atoms/shells =       5

  Dimensionality = 3               :  Bulk   



  Cartesian lattice vectors (Angstroms) :

       10.739800    0.000000    0.000000
        9.863930    4.248080    0.000000
        9.863930    2.033746    3.729619

  Cell parameters (Angstroms/Degrees):

  a =      10.7398    alpha =  23.3000
  b =      10.7398    beta  =  23.3000
  c =      10.7398    gamma =  23.3000

  Initial cell volume =         170.158355 Angs**3

  Temperature of configuration =  0.000     K 

  Pressure of configuration =         0.000 GPa 

  Fractional coordinates of asymmetric unit :

--------------------------------------------------------------------------------
   No.  Atomic       x           y          z         Charge      Occupancy
        Label      (Frac)      (Frac)     (Frac)        (e)         (Frac)  
--------------------------------------------------------------------------------
      1 Sb    c    0.396797    0.396797    0.416797      0.1090    1.000000    
      2 Sb    c    0.603203    0.603203    0.603203      0.1090    1.000000    
      3 Te1   c    0.000000    0.000000    0.000000      0.1600    1.000000    
      4 Te2   c    0.784571    0.784571    0.784571     -0.1890    1.000000    
      5 Te2   c    0.215429    0.215429    0.215429     -0.1890    1.000000    
--------------------------------------------------------------------------------



********************************************************************************
*  Input for Configuration =  15                                               *
********************************************************************************

  Formula = Sb2Te3                                                      

  Number of irreducible atoms/shells =       5


  Total number atoms/shells =       5

  Dimensionality = 3               :  Bulk   



  Cartesian lattice vectors (Angstroms) :

       10.739800    0.000000    0.000000
        9.863930    4.248080    0.000000
        9.863930    2.033746    3.729619

  Cell parameters (Angstroms/Degrees):

  a =      10.7398    alpha =  23.3000
  b =      10.7398    beta  =  23.3000
  c =      10.7398    gamma =  23.3000

  Initial cell volume =         170.158355 Angs**3

  Temperature of configuration =  0.000     K 

  Pressure of configuration =         0.000 GPa 

  Fractional coordinates of asymmetric unit :

--------------------------------------------------------------------------------
   No.  Atomic       x           y          z         Charge      Occupancy
        Label      (Frac)      (Frac)     (Frac)        (e)         (Frac)  
--------------------------------------------------------------------------------
      1 Sb    c    0.396797    0.396797    0.421797      0.1090    1.000000    
      2 Sb    c    0.603203    0.603203    0.603203      0.1090    1.000000    
      3 Te1   c    0.000000    0.000000    0.000000      0.1600    1.000000    
      4 Te2   c    0.784571    0.784571    0.784571     -0.1890    1.000000    
      5 Te2   c    0.215429    0.215429    0.215429     -0.1890    1.000000    
--------------------------------------------------------------------------------



********************************************************************************
*  Input for Configuration =  16                                               *
********************************************************************************

  Formula = Sb2Te3                                                      

  Number of irreducible atoms/shells =       5


  Total number atoms/shells =       5

  Dimensionality = 3               :  Bulk   



  Cartesian lattice vectors (Angstroms) :

       10.739800    0.000000    0.000000
        9.863930    4.248080    0.000000
        9.863930    2.033746    3.729619

  Cell parameters (Angstroms/Degrees):

  a =      10.7398    alpha =  23.3000
  b =      10.7398    beta  =  23.3000
  c =      10.7398    gamma =  23.3000

  Initial cell volume =         170.158355 Angs**3

  Temperature of configuration =  0.000     K 

  Pressure of configuration =         0.000 GPa 

  Fractional coordinates of asymmetric unit :

--------------------------------------------------------------------------------
   No.  Atomic       x           y          z         Charge      Occupancy
        Label      (Frac)      (Frac)     (Frac)        (e)         (Frac)  
--------------------------------------------------------------------------------
      1 Sb    c    0.396797    0.396797    0.396797      0.1090    1.000000    
      2 Sb    c    0.603203    0.603203    0.603203      0.1090    1.000000    
      3 Te1   c    0.005000    0.000000    0.000000      0.1600    1.000000    
      4 Te2   c    0.784571    0.784571    0.784571     -0.1890    1.000000    
      5 Te2   c    0.215429    0.215429    0.215429     -0.1890    1.000000    
--------------------------------------------------------------------------------



********************************************************************************
*  Input for Configuration =  17                                               *
********************************************************************************

  Formula = Sb2Te3                                                      

  Number of irreducible atoms/shells =       5


  Total number atoms/shells =       5

  Dimensionality = 3               :  Bulk   



  Cartesian lattice vectors (Angstroms) :

       10.739800    0.000000    0.000000
        9.863930    4.248080    0.000000
        9.863930    2.033746    3.729619

  Cell parameters (Angstroms/Degrees):

  a =      10.7398    alpha =  23.3000
  b =      10.7398    beta  =  23.3000
  c =      10.7398    gamma =  23.3000

  Initial cell volume =         170.158355 Angs**3

  Temperature of configuration =  0.000     K 

  Pressure of configuration =         0.000 GPa 

  Fractional coordinates of asymmetric unit :

--------------------------------------------------------------------------------
   No.  Atomic       x           y          z         Charge      Occupancy
        Label      (Frac)      (Frac)     (Frac)        (e)         (Frac)  
--------------------------------------------------------------------------------
      1 Sb    c    0.396797    0.396797    0.396797      0.1090    1.000000    
      2 Sb    c    0.603203    0.603203    0.603203      0.1090    1.000000    
      3 Te1   c    0.010000    0.000000    0.000000      0.1600    1.000000    
      4 Te2   c    0.784571    0.784571    0.784571     -0.1890    1.000000    
      5 Te2   c    0.215429    0.215429    0.215429     -0.1890    1.000000    
--------------------------------------------------------------------------------



********************************************************************************
*  Input for Configuration =  18                                               *
********************************************************************************

  Formula = Sb2Te3                                                      

  Number of irreducible atoms/shells =       5


  Total number atoms/shells =       5

  Dimensionality = 3               :  Bulk   



  Cartesian lattice vectors (Angstroms) :

       10.739800    0.000000    0.000000
        9.863930    4.248080    0.000000
        9.863930    2.033746    3.729619

  Cell parameters (Angstroms/Degrees):

  a =      10.7398    alpha =  23.3000
  b =      10.7398    beta  =  23.3000
  c =      10.7398    gamma =  23.3000

  Initial cell volume =         170.158355 Angs**3

  Temperature of configuration =  0.000     K 

  Pressure of configuration =         0.000 GPa 

  Fractional coordinates of asymmetric unit :

--------------------------------------------------------------------------------
   No.  Atomic       x           y          z         Charge      Occupancy
        Label      (Frac)      (Frac)     (Frac)        (e)         (Frac)  
--------------------------------------------------------------------------------
      1 Sb    c    0.396797    0.396797    0.396797      0.1090    1.000000    
      2 Sb    c    0.603203    0.603203    0.603203      0.1090    1.000000    
      3 Te1   c    0.015000    0.000000    0.000000      0.1600    1.000000    
      4 Te2   c    0.784571    0.784571    0.784571     -0.1890    1.000000    
      5 Te2   c    0.215429    0.215429    0.215429     -0.1890    1.000000    
--------------------------------------------------------------------------------



********************************************************************************
*  Input for Configuration =  19                                               *
********************************************************************************

  Formula = Sb2Te3                                                      

  Number of irreducible atoms/shells =       5


  Total number atoms/shells =       5

  Dimensionality = 3               :  Bulk   



  Cartesian lattice vectors (Angstroms) :

       10.739800    0.000000    0.000000
        9.863930    4.248080    0.000000
        9.863930    2.033746    3.729619

  Cell parameters (Angstroms/Degrees):

  a =      10.7398    alpha =  23.3000
  b =      10.7398    beta  =  23.3000
  c =      10.7398    gamma =  23.3000

  Initial cell volume =         170.158355 Angs**3

  Temperature of configuration =  0.000     K 

  Pressure of configuration =         0.000 GPa 

  Fractional coordinates of asymmetric unit :

--------------------------------------------------------------------------------
   No.  Atomic       x           y          z         Charge      Occupancy
        Label      (Frac)      (Frac)     (Frac)        (e)         (Frac)  
--------------------------------------------------------------------------------
      1 Sb    c    0.396797    0.396797    0.396797      0.1090    1.000000    
      2 Sb    c    0.603203    0.603203    0.603203      0.1090    1.000000    
      3 Te1   c    0.020000    0.000000    0.000000      0.1600    1.000000    
      4 Te2   c    0.784571    0.784571    0.784571     -0.1890    1.000000    
      5 Te2   c    0.215429    0.215429    0.215429     -0.1890    1.000000    
--------------------------------------------------------------------------------



********************************************************************************
*  Input for Configuration =  20                                               *
********************************************************************************

  Formula = Sb2Te3                                                      

  Number of irreducible atoms/shells =       5


  Total number atoms/shells =       5

  Dimensionality = 3               :  Bulk   



  Cartesian lattice vectors (Angstroms) :

       10.739800    0.000000    0.000000
        9.863930    4.248080    0.000000
        9.863930    2.033746    3.729619

  Cell parameters (Angstroms/Degrees):

  a =      10.7398    alpha =  23.3000
  b =      10.7398    beta  =  23.3000
  c =      10.7398    gamma =  23.3000

  Initial cell volume =         170.158355 Angs**3

  Temperature of configuration =  0.000     K 

  Pressure of configuration =         0.000 GPa 

  Fractional coordinates of asymmetric unit :

--------------------------------------------------------------------------------
   No.  Atomic       x           y          z         Charge      Occupancy
        Label      (Frac)      (Frac)     (Frac)        (e)         (Frac)  
--------------------------------------------------------------------------------
      1 Sb    c    0.396797    0.396797    0.396797      0.1090    1.000000    
      2 Sb    c    0.603203    0.603203    0.603203      0.1090    1.000000    
      3 Te1   c    0.025000    0.000000    0.000000      0.1600    1.000000    
      4 Te2   c    0.784571    0.784571    0.784571     -0.1890    1.000000    
      5 Te2   c    0.215429    0.215429    0.215429     -0.1890    1.000000    
--------------------------------------------------------------------------------



********************************************************************************
*  Input for Configuration =  21                                               *
********************************************************************************

  Formula = Sb2Te3                                                      

  Number of irreducible atoms/shells =       5


  Total number atoms/shells =       5

  Dimensionality = 3               :  Bulk   



  Cartesian lattice vectors (Angstroms) :

       10.739800    0.000000    0.000000
        9.863930    4.248080    0.000000
        9.863930    2.033746    3.729619

  Cell parameters (Angstroms/Degrees):

  a =      10.7398    alpha =  23.3000
  b =      10.7398    beta  =  23.3000
  c =      10.7398    gamma =  23.3000

  Initial cell volume =         170.158355 Angs**3

  Temperature of configuration =  0.000     K 

  Pressure of configuration =         0.000 GPa 

  Fractional coordinates of asymmetric unit :

--------------------------------------------------------------------------------
   No.  Atomic       x           y          z         Charge      Occupancy
        Label      (Frac)      (Frac)     (Frac)        (e)         (Frac)  
--------------------------------------------------------------------------------
      1 Sb    c    0.396797    0.396797    0.396797      0.1090    1.000000    
      2 Sb    c    0.603203    0.603203    0.603203      0.1090    1.000000    
      3 Te1   c    0.000000    0.005000    0.000000      0.1600    1.000000    
      4 Te2   c    0.784571    0.784571    0.784571     -0.1890    1.000000    
      5 Te2   c    0.215429    0.215429    0.215429     -0.1890    1.000000    
--------------------------------------------------------------------------------



********************************************************************************
*  Input for Configuration =  22                                               *
********************************************************************************

  Formula = Sb2Te3                                                      

  Number of irreducible atoms/shells =       5


  Total number atoms/shells =       5

  Dimensionality = 3               :  Bulk   



  Cartesian lattice vectors (Angstroms) :

       10.739800    0.000000    0.000000
        9.863930    4.248080    0.000000
        9.863930    2.033746    3.729619

  Cell parameters (Angstroms/Degrees):

  a =      10.7398    alpha =  23.3000
  b =      10.7398    beta  =  23.3000
  c =      10.7398    gamma =  23.3000

  Initial cell volume =         170.158355 Angs**3

  Temperature of configuration =  0.000     K 

  Pressure of configuration =         0.000 GPa 

  Fractional coordinates of asymmetric unit :

--------------------------------------------------------------------------------
   No.  Atomic       x           y          z         Charge      Occupancy
        Label      (Frac)      (Frac)     (Frac)        (e)         (Frac)  
--------------------------------------------------------------------------------
      1 Sb    c    0.396797    0.396797    0.396797      0.1090    1.000000    
      2 Sb    c    0.603203    0.603203    0.603203      0.1090    1.000000    
      3 Te1   c    0.000000    0.010000    0.000000      0.1600    1.000000    
      4 Te2   c    0.784571    0.784571    0.784571     -0.1890    1.000000    
      5 Te2   c    0.215429    0.215429    0.215429     -0.1890    1.000000    
--------------------------------------------------------------------------------



********************************************************************************
*  Input for Configuration =  23                                               *
********************************************************************************

  Formula = Sb2Te3                                                      

  Number of irreducible atoms/shells =       5


  Total number atoms/shells =       5

  Dimensionality = 3               :  Bulk   



  Cartesian lattice vectors (Angstroms) :

       10.739800    0.000000    0.000000
        9.863930    4.248080    0.000000
        9.863930    2.033746    3.729619

  Cell parameters (Angstroms/Degrees):

  a =      10.7398    alpha =  23.3000
  b =      10.7398    beta  =  23.3000
  c =      10.7398    gamma =  23.3000

  Initial cell volume =         170.158355 Angs**3

  Temperature of configuration =  0.000     K 

  Pressure of configuration =         0.000 GPa 

  Fractional coordinates of asymmetric unit :

--------------------------------------------------------------------------------
   No.  Atomic       x           y          z         Charge      Occupancy
        Label      (Frac)      (Frac)     (Frac)        (e)         (Frac)  
--------------------------------------------------------------------------------
      1 Sb    c    0.396797    0.396797    0.396797      0.1090    1.000000    
      2 Sb    c    0.603203    0.603203    0.603203      0.1090    1.000000    
      3 Te1   c    0.000000    0.015000    0.000000      0.1600    1.000000    
      4 Te2   c    0.784571    0.784571    0.784571     -0.1890    1.000000    
      5 Te2   c    0.215429    0.215429    0.215429     -0.1890    1.000000    
--------------------------------------------------------------------------------



********************************************************************************
*  Input for Configuration =  24                                               *
********************************************************************************

  Formula = Sb2Te3                                                      

  Number of irreducible atoms/shells =       5


  Total number atoms/shells =       5

  Dimensionality = 3               :  Bulk   



  Cartesian lattice vectors (Angstroms) :

       10.739800    0.000000    0.000000
        9.863930    4.248080    0.000000
        9.863930    2.033746    3.729619

  Cell parameters (Angstroms/Degrees):

  a =      10.7398    alpha =  23.3000
  b =      10.7398    beta  =  23.3000
  c =      10.7398    gamma =  23.3000

  Initial cell volume =         170.158355 Angs**3

  Temperature of configuration =  0.000     K 

  Pressure of configuration =         0.000 GPa 

  Fractional coordinates of asymmetric unit :

--------------------------------------------------------------------------------
   No.  Atomic       x           y          z         Charge      Occupancy
        Label      (Frac)      (Frac)     (Frac)        (e)         (Frac)  
--------------------------------------------------------------------------------
      1 Sb    c    0.396797    0.396797    0.396797      0.1090    1.000000    
      2 Sb    c    0.603203    0.603203    0.603203      0.1090    1.000000    
      3 Te1   c    0.000000    0.020000    0.000000      0.1600    1.000000    
      4 Te2   c    0.784571    0.784571    0.784571     -0.1890    1.000000    
      5 Te2   c    0.215429    0.215429    0.215429     -0.1890    1.000000    
--------------------------------------------------------------------------------



********************************************************************************
*  Input for Configuration =  25                                               *
********************************************************************************

  Formula = Sb2Te3                                                      

  Number of irreducible atoms/shells =       5


  Total number atoms/shells =       5

  Dimensionality = 3               :  Bulk   



  Cartesian lattice vectors (Angstroms) :

       10.739800    0.000000    0.000000
        9.863930    4.248080    0.000000
        9.863930    2.033746    3.729619

  Cell parameters (Angstroms/Degrees):

  a =      10.7398    alpha =  23.3000
  b =      10.7398    beta  =  23.3000
  c =      10.7398    gamma =  23.3000

  Initial cell volume =         170.158355 Angs**3

  Temperature of configuration =  0.000     K 

  Pressure of configuration =         0.000 GPa 

  Fractional coordinates of asymmetric unit :

--------------------------------------------------------------------------------
   No.  Atomic       x           y          z         Charge      Occupancy
        Label      (Frac)      (Frac)     (Frac)        (e)         (Frac)  
--------------------------------------------------------------------------------
      1 Sb    c    0.396797    0.396797    0.396797      0.1090    1.000000    
      2 Sb    c    0.603203    0.603203    0.603203      0.1090    1.000000    
      3 Te1   c    0.000000    0.025000    0.000000      0.1600    1.000000    
      4 Te2   c    0.784571    0.784571    0.784571     -0.1890    1.000000    
      5 Te2   c    0.215429    0.215429    0.215429     -0.1890    1.000000    
--------------------------------------------------------------------------------



********************************************************************************
*  Input for Configuration =  26                                               *
********************************************************************************

  Formula = Sb2Te3                                                      

  Number of irreducible atoms/shells =       5


  Total number atoms/shells =       5

  Dimensionality = 3               :  Bulk   



  Cartesian lattice vectors (Angstroms) :

       10.739800    0.000000    0.000000
        9.863930    4.248080    0.000000
        9.863930    2.033746    3.729619

  Cell parameters (Angstroms/Degrees):

  a =      10.7398    alpha =  23.3000
  b =      10.7398    beta  =  23.3000
  c =      10.7398    gamma =  23.3000

  Initial cell volume =         170.158355 Angs**3

  Temperature of configuration =  0.000     K 

  Pressure of configuration =         0.000 GPa 

  Fractional coordinates of asymmetric unit :

--------------------------------------------------------------------------------
   No.  Atomic       x           y          z         Charge      Occupancy
        Label      (Frac)      (Frac)     (Frac)        (e)         (Frac)  
--------------------------------------------------------------------------------
      1 Sb    c    0.396797    0.396797    0.396797      0.1090    1.000000    
      2 Sb    c    0.603203    0.603203    0.603203      0.1090    1.000000    
      3 Te1   c    0.000000    0.000000    0.005000      0.1600    1.000000    
      4 Te2   c    0.784571    0.784571    0.784571     -0.1890    1.000000    
      5 Te2   c    0.215429    0.215429    0.215429     -0.1890    1.000000    
--------------------------------------------------------------------------------



********************************************************************************
*  Input for Configuration =  27                                               *
********************************************************************************

  Formula = Sb2Te3                                                      

  Number of irreducible atoms/shells =       5


  Total number atoms/shells =       5

  Dimensionality = 3               :  Bulk   



  Cartesian lattice vectors (Angstroms) :

       10.739800    0.000000    0.000000
        9.863930    4.248080    0.000000
        9.863930    2.033746    3.729619

  Cell parameters (Angstroms/Degrees):

  a =      10.7398    alpha =  23.3000
  b =      10.7398    beta  =  23.3000
  c =      10.7398    gamma =  23.3000

  Initial cell volume =         170.158355 Angs**3

  Temperature of configuration =  0.000     K 

  Pressure of configuration =         0.000 GPa 

  Fractional coordinates of asymmetric unit :

--------------------------------------------------------------------------------
   No.  Atomic       x           y          z         Charge      Occupancy
        Label      (Frac)      (Frac)     (Frac)        (e)         (Frac)  
--------------------------------------------------------------------------------
      1 Sb    c    0.396797    0.396797    0.396797      0.1090    1.000000    
      2 Sb    c    0.603203    0.603203    0.603203      0.1090    1.000000    
      3 Te1   c    0.000000    0.000000    0.010000      0.1600    1.000000    
      4 Te2   c    0.784571    0.784571    0.784571     -0.1890    1.000000    
      5 Te2   c    0.215429    0.215429    0.215429     -0.1890    1.000000    
--------------------------------------------------------------------------------



********************************************************************************
*  Input for Configuration =  28                                               *
********************************************************************************

  Formula = Sb2Te3                                                      

  Number of irreducible atoms/shells =       5


  Total number atoms/shells =       5

  Dimensionality = 3               :  Bulk   



  Cartesian lattice vectors (Angstroms) :

       10.739800    0.000000    0.000000
        9.863930    4.248080    0.000000
        9.863930    2.033746    3.729619

  Cell parameters (Angstroms/Degrees):

  a =      10.7398    alpha =  23.3000
  b =      10.7398    beta  =  23.3000
  c =      10.7398    gamma =  23.3000

  Initial cell volume =         170.158355 Angs**3

  Temperature of configuration =  0.000     K 

  Pressure of configuration =         0.000 GPa 

  Fractional coordinates of asymmetric unit :

--------------------------------------------------------------------------------
   No.  Atomic       x           y          z         Charge      Occupancy
        Label      (Frac)      (Frac)     (Frac)        (e)         (Frac)  
--------------------------------------------------------------------------------
      1 Sb    c    0.396797    0.396797    0.396797      0.1090    1.000000    
      2 Sb    c    0.603203    0.603203    0.603203      0.1090    1.000000    
      3 Te1   c    0.000000    0.000000    0.015000      0.1600    1.000000    
      4 Te2   c    0.784571    0.784571    0.784571     -0.1890    1.000000    
      5 Te2   c    0.215429    0.215429    0.215429     -0.1890    1.000000    
--------------------------------------------------------------------------------



********************************************************************************
*  Input for Configuration =  29                                               *
********************************************************************************

  Formula = Sb2Te3                                                      

  Number of irreducible atoms/shells =       5


  Total number atoms/shells =       5

  Dimensionality = 3               :  Bulk   



  Cartesian lattice vectors (Angstroms) :

       10.739800    0.000000    0.000000
        9.863930    4.248080    0.000000
        9.863930    2.033746    3.729619

  Cell parameters (Angstroms/Degrees):

  a =      10.7398    alpha =  23.3000
  b =      10.7398    beta  =  23.3000
  c =      10.7398    gamma =  23.3000

  Initial cell volume =         170.158355 Angs**3

  Temperature of configuration =  0.000     K 

  Pressure of configuration =         0.000 GPa 

  Fractional coordinates of asymmetric unit :

--------------------------------------------------------------------------------
   No.  Atomic       x           y          z         Charge      Occupancy
        Label      (Frac)      (Frac)     (Frac)        (e)         (Frac)  
--------------------------------------------------------------------------------
      1 Sb    c    0.396797    0.396797    0.396797      0.1090    1.000000    
      2 Sb    c    0.603203    0.603203    0.603203      0.1090    1.000000    
      3 Te1   c    0.000000    0.000000    0.020000      0.1600    1.000000    
      4 Te2   c    0.784571    0.784571    0.784571     -0.1890    1.000000    
      5 Te2   c    0.215429    0.215429    0.215429     -0.1890    1.000000    
--------------------------------------------------------------------------------



********************************************************************************
*  Input for Configuration =  30                                               *
********************************************************************************

  Formula = Sb2Te3                                                      

  Number of irreducible atoms/shells =       5


  Total number atoms/shells =       5

  Dimensionality = 3               :  Bulk   



  Cartesian lattice vectors (Angstroms) :

       10.739800    0.000000    0.000000
        9.863930    4.248080    0.000000
        9.863930    2.033746    3.729619

  Cell parameters (Angstroms/Degrees):

  a =      10.7398    alpha =  23.3000
  b =      10.7398    beta  =  23.3000
  c =      10.7398    gamma =  23.3000

  Initial cell volume =         170.158355 Angs**3

  Temperature of configuration =  0.000     K 

  Pressure of configuration =         0.000 GPa 

  Fractional coordinates of asymmetric unit :

--------------------------------------------------------------------------------
   No.  Atomic       x           y          z         Charge      Occupancy
        Label      (Frac)      (Frac)     (Frac)        (e)         (Frac)  
--------------------------------------------------------------------------------
      1 Sb    c    0.396797    0.396797    0.396797      0.1090    1.000000    
      2 Sb    c    0.603203    0.603203    0.603203      0.1090    1.000000    
      3 Te1   c    0.000000    0.000000    0.025000      0.1600    1.000000    
      4 Te2   c    0.784571    0.784571    0.784571     -0.1890    1.000000    
      5 Te2   c    0.215429    0.215429    0.215429     -0.1890    1.000000    
--------------------------------------------------------------------------------



********************************************************************************
*  Input for Configuration =  31                                               *
********************************************************************************

  Formula = Sb2Te3                                                      

  Number of irreducible atoms/shells =       5


  Total number atoms/shells =       5

  Dimensionality = 3               :  Bulk   



  Cartesian lattice vectors (Angstroms) :

       10.739800    0.000000    0.000000
        9.863930    4.248080    0.000000
        9.863930    2.033746    3.729619

  Cell parameters (Angstroms/Degrees):

  a =      10.7398    alpha =  23.3000
  b =      10.7398    beta  =  23.3000
  c =      10.7398    gamma =  23.3000

  Initial cell volume =         170.158355 Angs**3

  Temperature of configuration =  0.000     K 

  Pressure of configuration =         0.000 GPa 

  Fractional coordinates of asymmetric unit :

--------------------------------------------------------------------------------
   No.  Atomic       x           y          z         Charge      Occupancy
        Label      (Frac)      (Frac)     (Frac)        (e)         (Frac)  
--------------------------------------------------------------------------------
      1 Sb    c    0.396797    0.396797    0.396797      0.1090    1.000000    
      2 Sb    c    0.603203    0.603203    0.603203      0.1090    1.000000    
      3 Te1   c    0.000000    0.000000    0.000000      0.1600    1.000000    
      4 Te2   c    0.789571    0.784571    0.784571     -0.1890    1.000000    
      5 Te2   c    0.215429    0.215429    0.215429     -0.1890    1.000000    
--------------------------------------------------------------------------------



********************************************************************************
*  Input for Configuration =  32                                               *
********************************************************************************

  Formula = Sb2Te3                                                      

  Number of irreducible atoms/shells =       5


  Total number atoms/shells =       5

  Dimensionality = 3               :  Bulk   



  Cartesian lattice vectors (Angstroms) :

       10.739800    0.000000    0.000000
        9.863930    4.248080    0.000000
        9.863930    2.033746    3.729619

  Cell parameters (Angstroms/Degrees):

  a =      10.7398    alpha =  23.3000
  b =      10.7398    beta  =  23.3000
  c =      10.7398    gamma =  23.3000

  Initial cell volume =         170.158355 Angs**3

  Temperature of configuration =  0.000     K 

  Pressure of configuration =         0.000 GPa 

  Fractional coordinates of asymmetric unit :

--------------------------------------------------------------------------------
   No.  Atomic       x           y          z         Charge      Occupancy
        Label      (Frac)      (Frac)     (Frac)        (e)         (Frac)  
--------------------------------------------------------------------------------
      1 Sb    c    0.396797    0.396797    0.396797      0.1090    1.000000    
      2 Sb    c    0.603203    0.603203    0.603203      0.1090    1.000000    
      3 Te1   c    0.000000    0.000000    0.000000      0.1600    1.000000    
      4 Te2   c    0.794571    0.784571    0.784571     -0.1890    1.000000    
      5 Te2   c    0.215429    0.215429    0.215429     -0.1890    1.000000    
--------------------------------------------------------------------------------



********************************************************************************
*  Input for Configuration =  33                                               *
********************************************************************************

  Formula = Sb2Te3                                                      

  Number of irreducible atoms/shells =       5


  Total number atoms/shells =       5

  Dimensionality = 3               :  Bulk   



  Cartesian lattice vectors (Angstroms) :

       10.739800    0.000000    0.000000
        9.863930    4.248080    0.000000
        9.863930    2.033746    3.729619

  Cell parameters (Angstroms/Degrees):

  a =      10.7398    alpha =  23.3000
  b =      10.7398    beta  =  23.3000
  c =      10.7398    gamma =  23.3000

  Initial cell volume =         170.158355 Angs**3

  Temperature of configuration =  0.000     K 

  Pressure of configuration =         0.000 GPa 

  Fractional coordinates of asymmetric unit :

--------------------------------------------------------------------------------
   No.  Atomic       x           y          z         Charge      Occupancy
        Label      (Frac)      (Frac)     (Frac)        (e)         (Frac)  
--------------------------------------------------------------------------------
      1 Sb    c    0.396797    0.396797    0.396797      0.1090    1.000000    
      2 Sb    c    0.603203    0.603203    0.603203      0.1090    1.000000    
      3 Te1   c    0.000000    0.000000    0.000000      0.1600    1.000000    
      4 Te2   c    0.799571    0.784571    0.784571     -0.1890    1.000000    
      5 Te2   c    0.215429    0.215429    0.215429     -0.1890    1.000000    
--------------------------------------------------------------------------------



********************************************************************************
*  Input for Configuration =  34                                               *
********************************************************************************

  Formula = Sb2Te3                                                      

  Number of irreducible atoms/shells =       5


  Total number atoms/shells =       5

  Dimensionality = 3               :  Bulk   



  Cartesian lattice vectors (Angstroms) :

       10.739800    0.000000    0.000000
        9.863930    4.248080    0.000000
        9.863930    2.033746    3.729619

  Cell parameters (Angstroms/Degrees):

  a =      10.7398    alpha =  23.3000
  b =      10.7398    beta  =  23.3000
  c =      10.7398    gamma =  23.3000

  Initial cell volume =         170.158355 Angs**3

  Temperature of configuration =  0.000     K 

  Pressure of configuration =         0.000 GPa 

  Fractional coordinates of asymmetric unit :

--------------------------------------------------------------------------------
   No.  Atomic       x           y          z         Charge      Occupancy
        Label      (Frac)      (Frac)     (Frac)        (e)         (Frac)  
--------------------------------------------------------------------------------
      1 Sb    c    0.396797    0.396797    0.396797      0.1090    1.000000    
      2 Sb    c    0.603203    0.603203    0.603203      0.1090    1.000000    
      3 Te1   c    0.000000    0.000000    0.000000      0.1600    1.000000    
      4 Te2   c    0.804571    0.784571    0.784571     -0.1890    1.000000    
      5 Te2   c    0.215429    0.215429    0.215429     -0.1890    1.000000    
--------------------------------------------------------------------------------



********************************************************************************
*  Input for Configuration =  35                                               *
********************************************************************************

  Formula = Sb2Te3                                                      

  Number of irreducible atoms/shells =       5


  Total number atoms/shells =       5

  Dimensionality = 3               :  Bulk   



  Cartesian lattice vectors (Angstroms) :

       10.739800    0.000000    0.000000
        9.863930    4.248080    0.000000
        9.863930    2.033746    3.729619

  Cell parameters (Angstroms/Degrees):

  a =      10.7398    alpha =  23.3000
  b =      10.7398    beta  =  23.3000
  c =      10.7398    gamma =  23.3000

  Initial cell volume =         170.158355 Angs**3

  Temperature of configuration =  0.000     K 

  Pressure of configuration =         0.000 GPa 

  Fractional coordinates of asymmetric unit :

--------------------------------------------------------------------------------
   No.  Atomic       x           y          z         Charge      Occupancy
        Label      (Frac)      (Frac)     (Frac)        (e)         (Frac)  
--------------------------------------------------------------------------------
      1 Sb    c    0.396797    0.396797    0.396797      0.1090    1.000000    
      2 Sb    c    0.603203    0.603203    0.603203      0.1090    1.000000    
      3 Te1   c    0.000000    0.000000    0.000000      0.1600    1.000000    
      4 Te2   c    0.809571    0.784571    0.784571     -0.1890    1.000000    
      5 Te2   c    0.215429    0.215429    0.215429     -0.1890    1.000000    
--------------------------------------------------------------------------------



********************************************************************************
*  Input for Configuration =  36                                               *
********************************************************************************

  Formula = Sb2Te3                                                      

  Number of irreducible atoms/shells =       5


  Total number atoms/shells =       5

  Dimensionality = 3               :  Bulk   



  Cartesian lattice vectors (Angstroms) :

       10.739800    0.000000    0.000000
        9.863930    4.248080    0.000000
        9.863930    2.033746    3.729619

  Cell parameters (Angstroms/Degrees):

  a =      10.7398    alpha =  23.3000
  b =      10.7398    beta  =  23.3000
  c =      10.7398    gamma =  23.3000

  Initial cell volume =         170.158355 Angs**3

  Temperature of configuration =  0.000     K 

  Pressure of configuration =         0.000 GPa 

  Fractional coordinates of asymmetric unit :

--------------------------------------------------------------------------------
   No.  Atomic       x           y          z         Charge      Occupancy
        Label      (Frac)      (Frac)     (Frac)        (e)         (Frac)  
--------------------------------------------------------------------------------
      1 Sb    c    0.396797    0.396797    0.396797      0.1090    1.000000    
      2 Sb    c    0.603203    0.603203    0.603203      0.1090    1.000000    
      3 Te1   c    0.000000    0.000000    0.000000      0.1600    1.000000    
      4 Te2   c    0.784571    0.789571    0.784571     -0.1890    1.000000    
      5 Te2   c    0.215429    0.215429    0.215429     -0.1890    1.000000    
--------------------------------------------------------------------------------



********************************************************************************
*  Input for Configuration =  37                                               *
********************************************************************************

  Formula = Sb2Te3                                                      

  Number of irreducible atoms/shells =       5


  Total number atoms/shells =       5

  Dimensionality = 3               :  Bulk   



  Cartesian lattice vectors (Angstroms) :

       10.739800    0.000000    0.000000
        9.863930    4.248080    0.000000
        9.863930    2.033746    3.729619

  Cell parameters (Angstroms/Degrees):

  a =      10.7398    alpha =  23.3000
  b =      10.7398    beta  =  23.3000
  c =      10.7398    gamma =  23.3000

  Initial cell volume =         170.158355 Angs**3

  Temperature of configuration =  0.000     K 

  Pressure of configuration =         0.000 GPa 

  Fractional coordinates of asymmetric unit :

--------------------------------------------------------------------------------
   No.  Atomic       x           y          z         Charge      Occupancy
        Label      (Frac)      (Frac)     (Frac)        (e)         (Frac)  
--------------------------------------------------------------------------------
      1 Sb    c    0.396797    0.396797    0.396797      0.1090    1.000000    
      2 Sb    c    0.603203    0.603203    0.603203      0.1090    1.000000    
      3 Te1   c    0.000000    0.000000    0.000000      0.1600    1.000000    
      4 Te2   c    0.784571    0.794571    0.784571     -0.1890    1.000000    
      5 Te2   c    0.215429    0.215429    0.215429     -0.1890    1.000000    
--------------------------------------------------------------------------------



********************************************************************************
*  Input for Configuration =  38                                               *
********************************************************************************

  Formula = Sb2Te3                                                      

  Number of irreducible atoms/shells =       5


  Total number atoms/shells =       5

  Dimensionality = 3               :  Bulk   



  Cartesian lattice vectors (Angstroms) :

       10.739800    0.000000    0.000000
        9.863930    4.248080    0.000000
        9.863930    2.033746    3.729619

  Cell parameters (Angstroms/Degrees):

  a =      10.7398    alpha =  23.3000
  b =      10.7398    beta  =  23.3000
  c =      10.7398    gamma =  23.3000

  Initial cell volume =         170.158355 Angs**3

  Temperature of configuration =  0.000     K 

  Pressure of configuration =         0.000 GPa 

  Fractional coordinates of asymmetric unit :

--------------------------------------------------------------------------------
   No.  Atomic       x           y          z         Charge      Occupancy
        Label      (Frac)      (Frac)     (Frac)        (e)         (Frac)  
--------------------------------------------------------------------------------
      1 Sb    c    0.396797    0.396797    0.396797      0.1090    1.000000    
      2 Sb    c    0.603203    0.603203    0.603203      0.1090    1.000000    
      3 Te1   c    0.000000    0.000000    0.000000      0.1600    1.000000    
      4 Te2   c    0.784571    0.799571    0.784571     -0.1890    1.000000    
      5 Te2   c    0.215429    0.215429    0.215429     -0.1890    1.000000    
--------------------------------------------------------------------------------



********************************************************************************
*  Input for Configuration =  39                                               *
********************************************************************************

  Formula = Sb2Te3                                                      

  Number of irreducible atoms/shells =       5


  Total number atoms/shells =       5

  Dimensionality = 3               :  Bulk   



  Cartesian lattice vectors (Angstroms) :

       10.739800    0.000000    0.000000
        9.863930    4.248080    0.000000
        9.863930    2.033746    3.729619

  Cell parameters (Angstroms/Degrees):

  a =      10.7398    alpha =  23.3000
  b =      10.7398    beta  =  23.3000
  c =      10.7398    gamma =  23.3000

  Initial cell volume =         170.158355 Angs**3

  Temperature of configuration =  0.000     K 

  Pressure of configuration =         0.000 GPa 

  Fractional coordinates of asymmetric unit :

--------------------------------------------------------------------------------
   No.  Atomic       x           y          z         Charge      Occupancy
        Label      (Frac)      (Frac)     (Frac)        (e)         (Frac)  
--------------------------------------------------------------------------------
      1 Sb    c    0.396797    0.396797    0.396797      0.1090    1.000000    
      2 Sb    c    0.603203    0.603203    0.603203      0.1090    1.000000    
      3 Te1   c    0.000000    0.000000    0.000000      0.1600    1.000000    
      4 Te2   c    0.784571    0.804571    0.784571     -0.1890    1.000000    
      5 Te2   c    0.215429    0.215429    0.215429     -0.1890    1.000000    
--------------------------------------------------------------------------------



********************************************************************************
*  Input for Configuration =  40                                               *
********************************************************************************

  Formula = Sb2Te3                                                      

  Number of irreducible atoms/shells =       5


  Total number atoms/shells =       5

  Dimensionality = 3               :  Bulk   



  Cartesian lattice vectors (Angstroms) :

       10.739800    0.000000    0.000000
        9.863930    4.248080    0.000000
        9.863930    2.033746    3.729619

  Cell parameters (Angstroms/Degrees):

  a =      10.7398    alpha =  23.3000
  b =      10.7398    beta  =  23.3000
  c =      10.7398    gamma =  23.3000

  Initial cell volume =         170.158355 Angs**3

  Temperature of configuration =  0.000     K 

  Pressure of configuration =         0.000 GPa 

  Fractional coordinates of asymmetric unit :

--------------------------------------------------------------------------------
   No.  Atomic       x           y          z         Charge      Occupancy
        Label      (Frac)      (Frac)     (Frac)        (e)         (Frac)  
--------------------------------------------------------------------------------
      1 Sb    c    0.396797    0.396797    0.396797      0.1090    1.000000    
      2 Sb    c    0.603203    0.603203    0.603203      0.1090    1.000000    
      3 Te1   c    0.000000    0.000000    0.000000      0.1600    1.000000    
      4 Te2   c    0.784571    0.809571    0.784571     -0.1890    1.000000    
      5 Te2   c    0.215429    0.215429    0.215429     -0.1890    1.000000    
--------------------------------------------------------------------------------



********************************************************************************
*  Input for Configuration =  41                                               *
********************************************************************************

  Formula = Sb2Te3                                                      

  Number of irreducible atoms/shells =       5


  Total number atoms/shells =       5

  Dimensionality = 3               :  Bulk   



  Cartesian lattice vectors (Angstroms) :

       10.739800    0.000000    0.000000
        9.863930    4.248080    0.000000
        9.863930    2.033746    3.729619

  Cell parameters (Angstroms/Degrees):

  a =      10.7398    alpha =  23.3000
  b =      10.7398    beta  =  23.3000
  c =      10.7398    gamma =  23.3000

  Initial cell volume =         170.158355 Angs**3

  Temperature of configuration =  0.000     K 

  Pressure of configuration =         0.000 GPa 

  Fractional coordinates of asymmetric unit :

--------------------------------------------------------------------------------
   No.  Atomic       x           y          z         Charge      Occupancy
        Label      (Frac)      (Frac)     (Frac)        (e)         (Frac)  
--------------------------------------------------------------------------------
      1 Sb    c    0.396797    0.396797    0.396797      0.1090    1.000000    
      2 Sb    c    0.603203    0.603203    0.603203      0.1090    1.000000    
      3 Te1   c    0.000000    0.000000    0.000000      0.1600    1.000000    
      4 Te2   c    0.784571    0.784571    0.789571     -0.1890    1.000000    
      5 Te2   c    0.215429    0.215429    0.215429     -0.1890    1.000000    
--------------------------------------------------------------------------------



********************************************************************************
*  Input for Configuration =  42                                               *
********************************************************************************

  Formula = Sb2Te3                                                      

  Number of irreducible atoms/shells =       5


  Total number atoms/shells =       5

  Dimensionality = 3               :  Bulk   



  Cartesian lattice vectors (Angstroms) :

       10.739800    0.000000    0.000000
        9.863930    4.248080    0.000000
        9.863930    2.033746    3.729619

  Cell parameters (Angstroms/Degrees):

  a =      10.7398    alpha =  23.3000
  b =      10.7398    beta  =  23.3000
  c =      10.7398    gamma =  23.3000

  Initial cell volume =         170.158355 Angs**3

  Temperature of configuration =  0.000     K 

  Pressure of configuration =         0.000 GPa 

  Fractional coordinates of asymmetric unit :

--------------------------------------------------------------------------------
   No.  Atomic       x           y          z         Charge      Occupancy
        Label      (Frac)      (Frac)     (Frac)        (e)         (Frac)  
--------------------------------------------------------------------------------
      1 Sb    c    0.396797    0.396797    0.396797      0.1090    1.000000    
      2 Sb    c    0.603203    0.603203    0.603203      0.1090    1.000000    
      3 Te1   c    0.000000    0.000000    0.000000      0.1600    1.000000    
      4 Te2   c    0.784571    0.784571    0.794571     -0.1890    1.000000    
      5 Te2   c    0.215429    0.215429    0.215429     -0.1890    1.000000    
--------------------------------------------------------------------------------



********************************************************************************
*  Input for Configuration =  43                                               *
********************************************************************************

  Formula = Sb2Te3                                                      

  Number of irreducible atoms/shells =       5


  Total number atoms/shells =       5

  Dimensionality = 3               :  Bulk   



  Cartesian lattice vectors (Angstroms) :

       10.739800    0.000000    0.000000
        9.863930    4.248080    0.000000
        9.863930    2.033746    3.729619

  Cell parameters (Angstroms/Degrees):

  a =      10.7398    alpha =  23.3000
  b =      10.7398    beta  =  23.3000
  c =      10.7398    gamma =  23.3000

  Initial cell volume =         170.158355 Angs**3

  Temperature of configuration =  0.000     K 

  Pressure of configuration =         0.000 GPa 

  Fractional coordinates of asymmetric unit :

--------------------------------------------------------------------------------
   No.  Atomic       x           y          z         Charge      Occupancy
        Label      (Frac)      (Frac)     (Frac)        (e)         (Frac)  
--------------------------------------------------------------------------------
      1 Sb    c    0.396797    0.396797    0.396797      0.1090    1.000000    
      2 Sb    c    0.603203    0.603203    0.603203      0.1090    1.000000    
      3 Te1   c    0.000000    0.000000    0.000000      0.1600    1.000000    
      4 Te2   c    0.784571    0.784571    0.799571     -0.1890    1.000000    
      5 Te2   c    0.215429    0.215429    0.215429     -0.1890    1.000000    
--------------------------------------------------------------------------------



********************************************************************************
*  Input for Configuration =  44                                               *
********************************************************************************

  Formula = Sb2Te3                                                      

  Number of irreducible atoms/shells =       5


  Total number atoms/shells =       5

  Dimensionality = 3               :  Bulk   



  Cartesian lattice vectors (Angstroms) :

       10.739800    0.000000    0.000000
        9.863930    4.248080    0.000000
        9.863930    2.033746    3.729619

  Cell parameters (Angstroms/Degrees):

  a =      10.7398    alpha =  23.3000
  b =      10.7398    beta  =  23.3000
  c =      10.7398    gamma =  23.3000

  Initial cell volume =         170.158355 Angs**3

  Temperature of configuration =  0.000     K 

  Pressure of configuration =         0.000 GPa 

  Fractional coordinates of asymmetric unit :

--------------------------------------------------------------------------------
   No.  Atomic       x           y          z         Charge      Occupancy
        Label      (Frac)      (Frac)     (Frac)        (e)         (Frac)  
--------------------------------------------------------------------------------
      1 Sb    c    0.396797    0.396797    0.396797      0.1090    1.000000    
      2 Sb    c    0.603203    0.603203    0.603203      0.1090    1.000000    
      3 Te1   c    0.000000    0.000000    0.000000      0.1600    1.000000    
      4 Te2   c    0.784571    0.784571    0.804571     -0.1890    1.000000    
      5 Te2   c    0.215429    0.215429    0.215429     -0.1890    1.000000    
--------------------------------------------------------------------------------



********************************************************************************
*  Input for Configuration =  45                                               *
********************************************************************************

  Formula = Sb2Te3                                                      

  Number of irreducible atoms/shells =       5


  Total number atoms/shells =       5

  Dimensionality = 3               :  Bulk   



  Cartesian lattice vectors (Angstroms) :

       10.739800    0.000000    0.000000
        9.863930    4.248080    0.000000
        9.863930    2.033746    3.729619

[...]
!! WARNING : No variables to optimise - single point performed
!!!!!!!!!!!!!!!!!!!!!!!!!!!!!!!!!!!!!!!!!!!!!!!!!!!!!!!!!!!!!!!!!!!!!!!!!!!!!!!!


  Components of energy : 

--------------------------------------------------------------------------------
  Interatomic potentials     =          -3.12075188 eV
  Monopole - monopole (real) =          -0.01064023 eV
  Monopole - monopole (recip)=          -0.04400889 eV
  Monopole - monopole (total)=          -0.05464912 eV
  Energy shift               =         -15.10989345 eV
--------------------------------------------------------------------------------
  Total lattice energy       =         -18.28529445 eV
--------------------------------------------------------------------------------
  Total lattice energy       =           -1764.2514 kJ/(mole unit cells)
--------------------------------------------------------------------------------

  Born effective charge tensors : 

-------------------------------------------------------------------------------
  Atom             x           y             z
-------------------------------------------------------------------------------
   1 Sb    x       0.0984      0.0000      0.0000
           y       0.0000      0.0984      0.0000
           z       0.0000      0.0000      0.0984
-------------------------------------------------------------------------------
   2 Sb    x       0.0984      0.0000      0.0000
           y       0.0000      0.0984      0.0000
           z       0.0000      0.0000      0.0984
-------------------------------------------------------------------------------
   3 Te1   x       0.0511      0.0000      0.0000
           y       0.0000      0.0511      0.0000
           z       0.0000      0.0000      0.0511
-------------------------------------------------------------------------------
   4 Te2   x      -0.1240      0.0000      0.0000
           y       0.0000     -0.1240      0.0000
           z       0.0000      0.0000     -0.1240
-------------------------------------------------------------------------------
   5 Te2   x      -0.1240      0.0000      0.0000
           y       0.0000     -0.1240      0.0000
           z       0.0000      0.0000     -0.1240
-------------------------------------------------------------------------------




  Elastic Constant Matrix: (Units=GPa)

-------------------------------------------------------------------------------
  Indices      1         2         3         4         5         6    
-------------------------------------------------------------------------------
       1     31.3291   18.6424   23.4939   -4.4485   -1.4716   -2.4787
       2     18.6424   30.3559   15.9655    5.9976    8.9848    2.6883
       3     23.4939   15.9655   25.2600   -1.3250   -6.4262    1.6211
       4     -4.4485    5.9976   -1.3250   10.6390    1.1335    8.6953
       5     -1.4716    8.9848   -6.4262    1.1335   15.9028   -4.5082
       6     -2.4787    2.6883    1.6211    8.6953   -4.5082   10.9862
-------------------------------------------------------------------------------


  Elastic Compliance Matrix: (Units=1/GPa)

-------------------------------------------------------------------------------
  Indices      1         2         3         4         5         6    
-------------------------------------------------------------------------------
       1    0.158794 -0.055213 -0.109077  0.098779 -0.010007 -0.016855
       2   -0.055213  0.228596 -0.147326 -0.139521 -0.187596 -0.013207
       3   -0.109077 -0.147326  0.283367  0.039078  0.189534  0.016473
       4    0.098779 -0.139521  0.039078  0.576478 -0.059199 -0.429899
       5   -0.010007 -0.187596  0.189534 -0.059199  0.301561  0.186278
       6   -0.016855 -0.013207  0.016473 -0.429899  0.186278  0.504714
-------------------------------------------------------------------------------

 Mechanical properties :

-------------------------------------------------------------------------------
  Convention :                    Reuss         Voigt         Hill
-------------------------------------------------------------------------------
  Bulk  Modulus (GPa)     =      21.04198      22.57205      21.80701
  Shear Modulus (GPa)     =       1.85695       9.42847       5.64271
-------------------------------------------------------------------------------
  Velocity S-wave (km/s)  =       1.74304       3.92761       3.03844
  Velocity P-wave (km/s)  =       6.20307       7.58279       6.92737
-------------------------------------------------------------------------------
  Compressibility (1/GPa) =    0.04752405
-------------------------------------------------------------------------------
  Stress axis :                     x             y             z
-------------------------------------------------------------------------------
  Youngs Moduli (GPa)     =       6.29749       4.37453       3.52899
-------------------------------------------------------------------------------
  Poissons Ratio (x)      =                     0.24153       0.38493
  Poissons Ratio (y)      =       0.34770                     0.51991
  Poissons Ratio (z)      =       0.68691       0.64448
-------------------------------------------------------------------------------


  Piezoelectric Strain Matrix: (Units=C/m**2)

-------------------------------------------------------------------------------
  Indices      1         2         3         4         5         6    
-------------------------------------------------------------------------------
       x     0.00000   0.00000   0.00000  -0.00000  -0.00000  -0.00000
       y    -0.00000   0.00000   0.00000   0.00000  -0.00000   0.00000
       z    -0.00000   0.00000  -0.00000   0.00000   0.00000  -0.00000
-------------------------------------------------------------------------------


  Piezoelectric Stress Matrix: (Units=10**-11 C/N)

-------------------------------------------------------------------------------
  Indices      1         2         3         4         5         6    
-------------------------------------------------------------------------------
       x    -0.00000   0.00000   0.00000  -0.00000  -0.00000  -0.00000
       y    -0.00000   0.00000   0.00000   0.00000  -0.00000  -0.00000
       z    -0.00000   0.00000  -0.00000   0.00000   0.00000  -0.00000
-------------------------------------------------------------------------------


  Static dielectric constant tensor : 

-------------------------------------------------------------------------------
              x         y         z
-------------------------------------------------------------------------------
       x     1.00865  -0.00001  -0.00000
       y    -0.00001   1.00868  -0.00000
       z    -0.00000  -0.00000   1.00868
--------------------------------------------------------------------------------

  Static refractive indices : 

-------------------------------------------------------------------------------
    1 =    1.00431      2 =    1.00433      3 =    1.00433
-------------------------------------------------------------------------------


  Time to end of properties =     118.3594 seconds


********************************************************************************
*  Output for configuration  58                                                *
********************************************************************************


  Components of energy : 

--------------------------------------------------------------------------------
  Interatomic potentials     =          -3.12075188 eV
  Monopole - monopole (real) =          -0.01064023 eV
  Monopole - monopole (recip)=          -0.04400889 eV
  Monopole - monopole (total)=          -0.05464912 eV
  Energy shift               =         -15.10989345 eV
--------------------------------------------------------------------------------
  Total lattice energy       =         -18.28529445 eV
--------------------------------------------------------------------------------
  Total lattice energy       =           -1764.2514 kJ/(mole unit cells)
--------------------------------------------------------------------------------


  Number of variables =     18

  Maximum number of calculations  =          1000
  Maximum Hessian update interval =            10
  Maximum step size               =   1.000000000
  Maximum parameter tolerance     =   0.000010000
  Maximum function  tolerance     =   0.000010000
  Maximum gradient  tolerance     =   0.001000000
  Maximum gradient  component     =   0.010000000

  Symmetry not applied to optimisation

  Cell parameters to be optimised using strains

  Newton-Raphson optimiser to be used

  BFGS hessian update to be used

  Dumpfile to be written after every cycle

  Start of bulk optimisation :

  Cycle:      0 Energy:       -18.285294  Gnorm:      0.088735  CPU:  118.371
  ** Hessian calculated **
  Cycle:      1 Energy:       -18.306359  Gnorm:      0.093749  CPU:  118.375
  Cycle:      2 Energy:       -18.307363  Gnorm:      0.038134  CPU:  118.391
  Cycle:      3 Energy:       -18.307602  Gnorm:      0.000209  CPU:  118.407


  **** Optimisation achieved ****


  Final energy =     -18.30760158 eV
  Final Gnorm  =       0.00004191

  Components of energy : 

--------------------------------------------------------------------------------
  Interatomic potentials     =          -3.17023448 eV
  Monopole - monopole (real) =          -0.00806066 eV
  Monopole - monopole (recip)=          -0.01941299 eV
  Monopole - monopole (total)=          -0.02747364 eV
  Energy shift               =         -15.10989345 eV
--------------------------------------------------------------------------------
  Total lattice energy       =         -18.30760158 eV
--------------------------------------------------------------------------------
  Total lattice energy       =           -1766.4037 kJ/(mole unit cells)
--------------------------------------------------------------------------------

  Final fractional coordinates of atoms :

--------------------------------------------------------------------------------
   No.  Atomic        x           y          z          Radius
        Label       (Frac)      (Frac)     (Frac)       (Angs) 
--------------------------------------------------------------------------------
     1  Sb    c     0.396797    0.396797    0.396797    0.000000
     2  Sb    c     0.600668    0.600668    0.600668    0.000000
     3  Te1   c     0.998732    0.998732    0.998732    0.000000
     4  Te2   c     0.784881    0.784881    0.784881    0.000000
     5  Te2   c     0.212584    0.212584    0.212584    0.000000
--------------------------------------------------------------------------------

  Final Cartesian lattice vectors (Angstroms) :

       11.302367    0.183208    0.108773
       10.453085    4.302334    0.108773
       10.453085    2.155218    3.725177


  Final cell parameters and derivatives :

--------------------------------------------------------------------------------
       a           11.304375 Angstrom     dE/de1(xx)     0.000079 eV/strain
       b           11.304375 Angstrom     dE/de2(yy)     0.000129 eV/strain
       c           11.304375 Angstrom     dE/de3(zz)     0.000131 eV/strain
       alpha       21.441667 Degrees      dE/de4(yz)    -0.000001 eV/strain
       beta        21.441667 Degrees      dE/de5(xz)    -0.000006 eV/strain
       gamma       21.441667 Degrees      dE/de6(xy)    -0.000011 eV/strain
--------------------------------------------------------------------------------

  Primitive cell volume =           169.125892 Angs**3

  Density of cell =      6.149337 g/cm**3

  Non-primitive cell volume =           169.125892 Angs**3


  Final internal derivatives :

--------------------------------------------------------------------------------
   No.  Atomic          x             y             z           Radius
        Label          (eV)          (eV)          (eV)        (eV/Angs)
--------------------------------------------------------------------------------
      1 Sb    c       0.000000      0.000000      0.000000      0.000000
      2 Sb    c       0.000312      0.000312      0.000312      0.000000
      3 Te1   c      -0.000000     -0.000000     -0.000000      0.000000
      4 Te2   c       0.000199      0.000199      0.000199      0.000000
      5 Te2   c      -0.000199     -0.000199     -0.000199      0.000000
--------------------------------------------------------------------------------
  Maximum abs         0.000312      0.000312      0.000312      0.000000
--------------------------------------------------------------------------------


  Born effective charge tensors : 

-------------------------------------------------------------------------------
  Atom             x           y             z
-------------------------------------------------------------------------------
   1 Sb    x       0.0984      0.0000      0.0000
           y       0.0000      0.0984      0.0000
           z       0.0000      0.0000      0.0984
-------------------------------------------------------------------------------
   2 Sb    x       0.0984      0.0000      0.0000
           y       0.0000      0.0984      0.0000
           z       0.0000      0.0000      0.0984
-------------------------------------------------------------------------------
   3 Te1   x       0.0511      0.0000      0.0000
           y       0.0000      0.0511      0.0000
           z       0.0000      0.0000      0.0511
-------------------------------------------------------------------------------
   4 Te2   x      -0.1240      0.0000      0.0000
           y       0.0000     -0.1240      0.0000
           z       0.0000      0.0000     -0.1240
-------------------------------------------------------------------------------
   5 Te2   x      -0.1240      0.0000      0.0000
           y       0.0000     -0.1240      0.0000
           z       0.0000      0.0000     -0.1240
-------------------------------------------------------------------------------




  Elastic Constant Matrix: (Units=GPa)

-------------------------------------------------------------------------------
  Indices      1         2         3         4         5         6    
-------------------------------------------------------------------------------
       1     33.5582   16.9487   21.1057   -3.8117   -0.7540   -1.2699
       2     16.9487   30.5567   14.8986    5.3042    7.9929    1.9162
       3     21.1057   14.8986   26.1350   -1.2498   -6.0616    1.3366
       4     -3.8117    5.3042   -1.2498   10.9463    0.8282    7.6910
       5     -0.7540    7.9929   -6.0616    0.8282   14.7922   -3.8739
       6     -1.2699    1.9162    1.3366    7.6910   -3.8739   10.5673
-------------------------------------------------------------------------------


  Elastic Compliance Matrix: (Units=1/GPa)

-------------------------------------------------------------------------------
  Indices      1         2         3         4         5         6    
-------------------------------------------------------------------------------
       1    0.074970 -0.022710 -0.046941  0.044438 -0.010076 -0.016971
       2   -0.022710  0.112990 -0.069329 -0.064423 -0.086857  0.000597
       3   -0.046941 -0.069329  0.137671  0.019162  0.092936  0.009641
       4    0.044438 -0.064423  0.019162  0.281614 -0.022891 -0.198754
       5   -0.010076 -0.086857  0.092936 -0.022891  0.175311  0.083713
       6   -0.016971  0.000597  0.009641 -0.198754  0.083713  0.266607
-------------------------------------------------------------------------------

 Mechanical properties :

-------------------------------------------------------------------------------
  Convention :                    Reuss         Voigt         Hill
-------------------------------------------------------------------------------
  Bulk  Modulus (GPa)     =      20.97654      21.79509      21.38582
  Shear Modulus (GPa)     =       3.72297       9.74762       6.73529
-------------------------------------------------------------------------------
  Velocity S-wave (km/s)  =       2.46054       3.98139       3.30951
  Velocity P-wave (km/s)  =       6.49494       7.52186       7.02718
-------------------------------------------------------------------------------
  Compressibility (1/GPa) =    0.04767230
-------------------------------------------------------------------------------
  Stress axis :                     x             y             z
-------------------------------------------------------------------------------
  Youngs Moduli (GPa)     =      13.33862       8.85032       7.26368
-------------------------------------------------------------------------------
  Poissons Ratio (x)      =                     0.20099       0.34097
  Poissons Ratio (y)      =       0.30292                     0.50358
  Poissons Ratio (z)      =       0.62613       0.61358
-------------------------------------------------------------------------------


  Piezoelectric Strain Matrix: (Units=C/m**2)

-------------------------------------------------------------------------------
  Indices      1         2         3         4         5         6    
-------------------------------------------------------------------------------
       x     0.00000   0.00000   0.00000  -0.00000  -0.00000  -0.00000
       y     0.00000   0.00000   0.00000   0.00000  -0.00000   0.00000
       z     0.00000   0.00000  -0.00000   0.00000   0.00000  -0.00000
-------------------------------------------------------------------------------


  Piezoelectric Stress Matrix: (Units=10**-11 C/N)

-------------------------------------------------------------------------------
  Indices      1         2         3         4         5         6    
-------------------------------------------------------------------------------
       x    -0.00000   0.00000   0.00000  -0.00000  -0.00000  -0.00000
       y     0.00000  -0.00000   0.00000   0.00000  -0.00000  -0.00000
       z     0.00000   0.00000  -0.00000  -0.00000  -0.00000  -0.00000
-------------------------------------------------------------------------------


  Static dielectric constant tensor : 

-------------------------------------------------------------------------------
              x         y         z
-------------------------------------------------------------------------------
       x     1.00814  -0.00034  -0.00020
       y    -0.00034   1.00971  -0.00004
       z    -0.00020  -0.00004   1.00976
--------------------------------------------------------------------------------

  Static refractive indices : 

-------------------------------------------------------------------------------
    1 =    1.00402      2 =    1.00488      3 =    1.00488
-------------------------------------------------------------------------------


  Time to end of optimisation =     118.4274 seconds


  Peak dynamic memory used =       0.94 MB 


  Timing analysis for GULP :

--------------------------------------------------------------------------------
  Task / Subroutine                                          Time (Seconds)
--------------------------------------------------------------------------------
  Calculation of reciprocal space energy and derivatives          7.1524
  Calculation of real space energy and derivatives              107.6228
  Sum of squares for fitting                                      2.7041
  Global summation overhead                                       0.1200
--------------------------------------------------------------------------------
  Total CPU time                                                118.4274
--------------------------------------------------------------------------------


  Dump file written as sb2te3.res                                              



  **** GULP has completed with  57 warnings - beware! ****

  Job Finished at 21:08.22 21st June       2010                               

