********************************************************************************
*                       GENERAL UTILITY LATTICE PROGRAM                        *
*                                 Julian Gale                                  *
*                      Nanochemistry Research Institute                        *
*             Curtin University of Technology, Western Australia               *
********************************************************************************
* Version = 3.4.7 * Last modified =  21st July 2009                            *
********************************************************************************
*  fit          - perform fitting run                                          *
*  optimise     - perform optimisation run after fitting                       *
*  property     - calculate properties for final geometry                      *
*  fbfgs        - use full numerical Hessian in BFGS for fitting               *
********************************************************************************

  Job Started  at 21:48.59 21st June       2010                               

  Number of CPUs =     1


  Total number of configurations input = 103

********************************************************************************
*  Input for Configuration =   1                                               *
********************************************************************************

  Formula = Sb2Te3                                                      

  Number of irreducible atoms/shells =       5


  Total number atoms/shells =       5

  Dimensionality = 3               :  Bulk   



  Cartesian lattice vectors (Angstroms) :

       -2.504286    0.000000   10.443767
        1.252143   -2.168775   10.443767
        1.252143    2.168775   10.443767

  Cell parameters (Angstroms/Degrees):

  a =      10.7398    alpha =  23.3006
  b =      10.7398    beta  =  23.3006
  c =      10.7398    gamma =  23.3006

  Initial cell volume =         170.167643 Angs**3

  Temperature of configuration =  0.000     K 

  Pressure of configuration =         0.000 GPa 

  Fractional coordinates of asymmetric unit :

--------------------------------------------------------------------------------
   No.  Atomic       x           y          z         Charge      Occupancy
        Label      (Frac)      (Frac)     (Frac)        (e)         (Frac)  
--------------------------------------------------------------------------------
      1 Sb    c    0.396797    0.396797    0.396797      0.1090    1.000000    
      2 Sb    c    0.603203    0.603203    0.603203      0.1090    1.000000    
      3 Te1   c    0.930000    0.930000    0.930000      0.1600    1.000000    
      4 Te2   c    0.784571    0.784571    0.784571     -0.1890    1.000000    
      5 Te2   c    0.215429    0.215429    0.215429     -0.1890    1.000000    
--------------------------------------------------------------------------------



********************************************************************************
*  Input for Configuration =   2                                               *
********************************************************************************

  Formula = Sb2Te3                                                      

  Number of irreducible atoms/shells =       5


  Total number atoms/shells =       5

  Dimensionality = 3               :  Bulk   



  Cartesian lattice vectors (Angstroms) :

       -2.504286    0.000000   10.443767
        1.252143   -2.168775   10.443767
        1.252143    2.168775   10.443767

  Cell parameters (Angstroms/Degrees):

  a =      10.7398    alpha =  23.3006
  b =      10.7398    beta  =  23.3006
  c =      10.7398    gamma =  23.3006

  Initial cell volume =         170.167643 Angs**3

  Temperature of configuration =  0.000     K 

  Pressure of configuration =         0.000 GPa 

  Fractional coordinates of asymmetric unit :

--------------------------------------------------------------------------------
   No.  Atomic       x           y          z         Charge      Occupancy
        Label      (Frac)      (Frac)     (Frac)        (e)         (Frac)  
--------------------------------------------------------------------------------
      1 Sb    c    0.396797    0.396797    0.396797      0.1090    1.000000    
      2 Sb    c    0.603203    0.603203    0.603203      0.1090    1.000000    
      3 Te1   c    0.940000    0.940000    0.940000      0.1600    1.000000    
      4 Te2   c    0.784571    0.784571    0.784571     -0.1890    1.000000    
      5 Te2   c    0.215429    0.215429    0.215429     -0.1890    1.000000    
--------------------------------------------------------------------------------



********************************************************************************
*  Input for Configuration =   3                                               *
********************************************************************************

  Formula = Sb2Te3                                                      

  Number of irreducible atoms/shells =       5


  Total number atoms/shells =       5

  Dimensionality = 3               :  Bulk   



  Cartesian lattice vectors (Angstroms) :

       -2.504286    0.000000   10.443767
        1.252143   -2.168775   10.443767
        1.252143    2.168775   10.443767

  Cell parameters (Angstroms/Degrees):

  a =      10.7398    alpha =  23.3006
  b =      10.7398    beta  =  23.3006
  c =      10.7398    gamma =  23.3006

  Initial cell volume =         170.167643 Angs**3

  Temperature of configuration =  0.000     K 

  Pressure of configuration =         0.000 GPa 

  Fractional coordinates of asymmetric unit :

--------------------------------------------------------------------------------
   No.  Atomic       x           y          z         Charge      Occupancy
        Label      (Frac)      (Frac)     (Frac)        (e)         (Frac)  
--------------------------------------------------------------------------------
      1 Sb    c    0.396797    0.396797    0.396797      0.1090    1.000000    
      2 Sb    c    0.603203    0.603203    0.603203      0.1090    1.000000    
      3 Te1   c    0.950000    0.950000    0.950000      0.1600    1.000000    
      4 Te2   c    0.784571    0.784571    0.784571     -0.1890    1.000000    
      5 Te2   c    0.215429    0.215429    0.215429     -0.1890    1.000000    
--------------------------------------------------------------------------------



********************************************************************************
*  Input for Configuration =   4                                               *
********************************************************************************

  Formula = Sb2Te3                                                      

  Number of irreducible atoms/shells =       5


  Total number atoms/shells =       5

  Dimensionality = 3               :  Bulk   



  Cartesian lattice vectors (Angstroms) :

       -2.504286    0.000000   10.443767
        1.252143   -2.168775   10.443767
        1.252143    2.168775   10.443767

  Cell parameters (Angstroms/Degrees):

  a =      10.7398    alpha =  23.3006
  b =      10.7398    beta  =  23.3006
  c =      10.7398    gamma =  23.3006

  Initial cell volume =         170.167643 Angs**3

  Temperature of configuration =  0.000     K 

  Pressure of configuration =         0.000 GPa 

  Fractional coordinates of asymmetric unit :

--------------------------------------------------------------------------------
   No.  Atomic       x           y          z         Charge      Occupancy
        Label      (Frac)      (Frac)     (Frac)        (e)         (Frac)  
--------------------------------------------------------------------------------
      1 Sb    c    0.396797    0.396797    0.396797      0.1090    1.000000    
      2 Sb    c    0.603203    0.603203    0.603203      0.1090    1.000000    
      3 Te1   c    0.960000    0.960000    0.960000      0.1600    1.000000    
      4 Te2   c    0.784571    0.784571    0.784571     -0.1890    1.000000    
      5 Te2   c    0.215429    0.215429    0.215429     -0.1890    1.000000    
--------------------------------------------------------------------------------



********************************************************************************
*  Input for Configuration =   5                                               *
********************************************************************************

  Formula = Sb2Te3                                                      

  Number of irreducible atoms/shells =       5


  Total number atoms/shells =       5

  Dimensionality = 3               :  Bulk   



  Cartesian lattice vectors (Angstroms) :

       -2.504286    0.000000   10.443767
        1.252143   -2.168775   10.443767
        1.252143    2.168775   10.443767

  Cell parameters (Angstroms/Degrees):

  a =      10.7398    alpha =  23.3006
  b =      10.7398    beta  =  23.3006
  c =      10.7398    gamma =  23.3006

  Initial cell volume =         170.167643 Angs**3

  Temperature of configuration =  0.000     K 

  Pressure of configuration =         0.000 GPa 

  Fractional coordinates of asymmetric unit :

--------------------------------------------------------------------------------
   No.  Atomic       x           y          z         Charge      Occupancy
        Label      (Frac)      (Frac)     (Frac)        (e)         (Frac)  
--------------------------------------------------------------------------------
      1 Sb    c    0.396797    0.396797    0.396797      0.1090    1.000000    
      2 Sb    c    0.603203    0.603203    0.603203      0.1090    1.000000    
      3 Te1   c    0.970000    0.970000    0.970000      0.1600    1.000000    
      4 Te2   c    0.784571    0.784571    0.784571     -0.1890    1.000000    
      5 Te2   c    0.215429    0.215429    0.215429     -0.1890    1.000000    
--------------------------------------------------------------------------------



********************************************************************************
*  Input for Configuration =   6                                               *
********************************************************************************

  Formula = Sb2Te3                                                      

  Number of irreducible atoms/shells =       5


  Total number atoms/shells =       5

  Dimensionality = 3               :  Bulk   



  Cartesian lattice vectors (Angstroms) :

       -2.504286    0.000000   10.443767
        1.252143   -2.168775   10.443767
        1.252143    2.168775   10.443767

  Cell parameters (Angstroms/Degrees):

  a =      10.7398    alpha =  23.3006
  b =      10.7398    beta  =  23.3006
  c =      10.7398    gamma =  23.3006

  Initial cell volume =         170.167643 Angs**3

  Temperature of configuration =  0.000     K 

  Pressure of configuration =         0.000 GPa 

  Fractional coordinates of asymmetric unit :

--------------------------------------------------------------------------------
   No.  Atomic       x           y          z         Charge      Occupancy
        Label      (Frac)      (Frac)     (Frac)        (e)         (Frac)  
--------------------------------------------------------------------------------
      1 Sb    c    0.396797    0.396797    0.396797      0.1090    1.000000    
      2 Sb    c    0.603203    0.603203    0.603203      0.1090    1.000000    
      3 Te1   c    0.980000    0.980000    0.980000      0.1600    1.000000    
      4 Te2   c    0.784571    0.784571    0.784571     -0.1890    1.000000    
      5 Te2   c    0.215429    0.215429    0.215429     -0.1890    1.000000    
--------------------------------------------------------------------------------



********************************************************************************
*  Input for Configuration =   7                                               *
********************************************************************************

  Formula = Sb2Te3                                                      

  Number of irreducible atoms/shells =       5


  Total number atoms/shells =       5

  Dimensionality = 3               :  Bulk   



  Cartesian lattice vectors (Angstroms) :

       -2.504286    0.000000   10.443767
        1.252143   -2.168775   10.443767
        1.252143    2.168775   10.443767

  Cell parameters (Angstroms/Degrees):

  a =      10.7398    alpha =  23.3006
  b =      10.7398    beta  =  23.3006
  c =      10.7398    gamma =  23.3006

  Initial cell volume =         170.167643 Angs**3

  Temperature of configuration =  0.000     K 

  Pressure of configuration =         0.000 GPa 

  Fractional coordinates of asymmetric unit :

--------------------------------------------------------------------------------
   No.  Atomic       x           y          z         Charge      Occupancy
        Label      (Frac)      (Frac)     (Frac)        (e)         (Frac)  
--------------------------------------------------------------------------------
      1 Sb    c    0.396797    0.396797    0.396797      0.1090    1.000000    
      2 Sb    c    0.603203    0.603203    0.603203      0.1090    1.000000    
      3 Te1   c    0.990000    0.990000    0.990000      0.1600    1.000000    
      4 Te2   c    0.784571    0.784571    0.784571     -0.1890    1.000000    
      5 Te2   c    0.215429    0.215429    0.215429     -0.1890    1.000000    
--------------------------------------------------------------------------------



********************************************************************************
*  Input for Configuration =   8                                               *
********************************************************************************

  Formula = Sb2Te3                                                      

  Number of irreducible atoms/shells =       5


  Total number atoms/shells =       5

  Dimensionality = 3               :  Bulk   



  Cartesian lattice vectors (Angstroms) :

       -2.504286    0.000000   10.443767
        1.252143   -2.168775   10.443767
        1.252143    2.168775   10.443767

  Cell parameters (Angstroms/Degrees):

  a =      10.7398    alpha =  23.3006
  b =      10.7398    beta  =  23.3006
  c =      10.7398    gamma =  23.3006

  Initial cell volume =         170.167643 Angs**3

  Temperature of configuration =  0.000     K 

  Pressure of configuration =         0.000 GPa 

  Fractional coordinates of asymmetric unit :

--------------------------------------------------------------------------------
   No.  Atomic       x           y          z         Charge      Occupancy
        Label      (Frac)      (Frac)     (Frac)        (e)         (Frac)  
--------------------------------------------------------------------------------
      1 Sb    c    0.396797    0.396797    0.396797      0.1090    1.000000    
      2 Sb    c    0.603203    0.603203    0.603203      0.1090    1.000000    
      3 Te1   c    0.000000    0.000000    0.000000      0.1600    1.000000    
      4 Te2   c    0.784571    0.784571    0.784571     -0.1890    1.000000    
      5 Te2   c    0.215429    0.215429    0.215429     -0.1890    1.000000    
--------------------------------------------------------------------------------



********************************************************************************
*  Input for Configuration =   9                                               *
********************************************************************************

  Formula = Sb2Te3                                                      

  Number of irreducible atoms/shells =       5


  Total number atoms/shells =       5

  Dimensionality = 3               :  Bulk   



  Cartesian lattice vectors (Angstroms) :

       -2.504286    0.000000   10.443767
        1.252143   -2.168775   10.443767
        1.252143    2.168775   10.443767

  Cell parameters (Angstroms/Degrees):

  a =      10.7398    alpha =  23.3006
  b =      10.7398    beta  =  23.3006
  c =      10.7398    gamma =  23.3006

  Initial cell volume =         170.167643 Angs**3

  Temperature of configuration =  0.000     K 

  Pressure of configuration =         0.000 GPa 

  Fractional coordinates of asymmetric unit :

--------------------------------------------------------------------------------
   No.  Atomic       x           y          z         Charge      Occupancy
        Label      (Frac)      (Frac)     (Frac)        (e)         (Frac)  
--------------------------------------------------------------------------------
      1 Sb    c    0.396797    0.396797    0.396797      0.1090    1.000000    
      2 Sb    c    0.603203    0.603203    0.603203      0.1090    1.000000    
      3 Te1   c    0.010000    0.010000    0.010000      0.1600    1.000000    
      4 Te2   c    0.784571    0.784571    0.784571     -0.1890    1.000000    
      5 Te2   c    0.215429    0.215429    0.215429     -0.1890    1.000000    
--------------------------------------------------------------------------------



********************************************************************************
*  Input for Configuration =  10                                               *
********************************************************************************

  Formula = Sb2Te3                                                      

  Number of irreducible atoms/shells =       5


  Total number atoms/shells =       5

  Dimensionality = 3               :  Bulk   



  Cartesian lattice vectors (Angstroms) :

       -2.504286    0.000000   10.443767
        1.252143   -2.168775   10.443767
        1.252143    2.168775   10.443767

  Cell parameters (Angstroms/Degrees):

  a =      10.7398    alpha =  23.3006
  b =      10.7398    beta  =  23.3006
  c =      10.7398    gamma =  23.3006

  Initial cell volume =         170.167643 Angs**3

  Temperature of configuration =  0.000     K 

  Pressure of configuration =         0.000 GPa 

  Fractional coordinates of asymmetric unit :

--------------------------------------------------------------------------------
   No.  Atomic       x           y          z         Charge      Occupancy
        Label      (Frac)      (Frac)     (Frac)        (e)         (Frac)  
--------------------------------------------------------------------------------
      1 Sb    c    0.396797    0.396797    0.396797      0.1090    1.000000    
      2 Sb    c    0.603203    0.603203    0.603203      0.1090    1.000000    
      3 Te1   c    0.020000    0.020000    0.020000      0.1600    1.000000    
      4 Te2   c    0.784571    0.784571    0.784571     -0.1890    1.000000    
      5 Te2   c    0.215429    0.215429    0.215429     -0.1890    1.000000    
--------------------------------------------------------------------------------



********************************************************************************
*  Input for Configuration =  11                                               *
********************************************************************************

  Formula = Sb2Te3                                                      

  Number of irreducible atoms/shells =       5


  Total number atoms/shells =       5

  Dimensionality = 3               :  Bulk   



  Cartesian lattice vectors (Angstroms) :

       -2.504286    0.000000   10.443767
        1.252143   -2.168775   10.443767
        1.252143    2.168775   10.443767

  Cell parameters (Angstroms/Degrees):

  a =      10.7398    alpha =  23.3006
  b =      10.7398    beta  =  23.3006
  c =      10.7398    gamma =  23.3006

  Initial cell volume =         170.167643 Angs**3

  Temperature of configuration =  0.000     K 

  Pressure of configuration =         0.000 GPa 

  Fractional coordinates of asymmetric unit :

--------------------------------------------------------------------------------
   No.  Atomic       x           y          z         Charge      Occupancy
        Label      (Frac)      (Frac)     (Frac)        (e)         (Frac)  
--------------------------------------------------------------------------------
      1 Sb    c    0.396797    0.396797    0.396797      0.1090    1.000000    
      2 Sb    c    0.603203    0.603203    0.603203      0.1090    1.000000    
      3 Te1   c    0.030000    0.030000    0.030000      0.1600    1.000000    
      4 Te2   c    0.784571    0.784571    0.784571     -0.1890    1.000000    
      5 Te2   c    0.215429    0.215429    0.215429     -0.1890    1.000000    
--------------------------------------------------------------------------------



********************************************************************************
*  Input for Configuration =  12                                               *
********************************************************************************

  Formula = Sb2Te3                                                      

  Number of irreducible atoms/shells =       5


  Total number atoms/shells =       5

  Dimensionality = 3               :  Bulk   



  Cartesian lattice vectors (Angstroms) :

       -2.504286    0.000000   10.443767
        1.252143   -2.168775   10.443767
        1.252143    2.168775   10.443767

  Cell parameters (Angstroms/Degrees):

  a =      10.7398    alpha =  23.3006
  b =      10.7398    beta  =  23.3006
  c =      10.7398    gamma =  23.3006

  Initial cell volume =         170.167643 Angs**3

  Temperature of configuration =  0.000     K 

  Pressure of configuration =         0.000 GPa 

  Fractional coordinates of asymmetric unit :

--------------------------------------------------------------------------------
   No.  Atomic       x           y          z         Charge      Occupancy
        Label      (Frac)      (Frac)     (Frac)        (e)         (Frac)  
--------------------------------------------------------------------------------
      1 Sb    c    0.396797    0.396797    0.396797      0.1090    1.000000    
      2 Sb    c    0.603203    0.603203    0.603203      0.1090    1.000000    
      3 Te1   c    0.040000    0.040000    0.040000      0.1600    1.000000    
      4 Te2   c    0.784571    0.784571    0.784571     -0.1890    1.000000    
      5 Te2   c    0.215429    0.215429    0.215429     -0.1890    1.000000    
--------------------------------------------------------------------------------



********************************************************************************
*  Input for Configuration =  13                                               *
********************************************************************************

  Formula = Sb2Te3                                                      

  Number of irreducible atoms/shells =       5


  Total number atoms/shells =       5

  Dimensionality = 3               :  Bulk   



  Cartesian lattice vectors (Angstroms) :

       -2.504286    0.000000   10.443767
        1.252143   -2.168775   10.443767
        1.252143    2.168775   10.443767

  Cell parameters (Angstroms/Degrees):

  a =      10.7398    alpha =  23.3006
  b =      10.7398    beta  =  23.3006
  c =      10.7398    gamma =  23.3006

  Initial cell volume =         170.167643 Angs**3

  Temperature of configuration =  0.000     K 

  Pressure of configuration =         0.000 GPa 

  Fractional coordinates of asymmetric unit :

--------------------------------------------------------------------------------
   No.  Atomic       x           y          z         Charge      Occupancy
        Label      (Frac)      (Frac)     (Frac)        (e)         (Frac)  
--------------------------------------------------------------------------------
      1 Sb    c    0.396797    0.396797    0.396797      0.1090    1.000000    
      2 Sb    c    0.603203    0.603203    0.603203      0.1090    1.000000    
      3 Te1   c    0.050000    0.050000    0.050000      0.1600    1.000000    
      4 Te2   c    0.784571    0.784571    0.784571     -0.1890    1.000000    
      5 Te2   c    0.215429    0.215429    0.215429     -0.1890    1.000000    
--------------------------------------------------------------------------------



********************************************************************************
*  Input for Configuration =  14                                               *
********************************************************************************

  Formula = Sb2Te3                                                      

  Number of irreducible atoms/shells =       5


  Total number atoms/shells =       5

  Dimensionality = 3               :  Bulk   



  Cartesian lattice vectors (Angstroms) :

       -2.504286    0.000000   10.443767
        1.252143   -2.168775   10.443767
        1.252143    2.168775   10.443767

  Cell parameters (Angstroms/Degrees):

  a =      10.7398    alpha =  23.3006
  b =      10.7398    beta  =  23.3006
  c =      10.7398    gamma =  23.3006

  Initial cell volume =         170.167643 Angs**3

  Temperature of configuration =  0.000     K 

  Pressure of configuration =         0.000 GPa 

  Fractional coordinates of asymmetric unit :

--------------------------------------------------------------------------------
   No.  Atomic       x           y          z         Charge      Occupancy
        Label      (Frac)      (Frac)     (Frac)        (e)         (Frac)  
--------------------------------------------------------------------------------
      1 Sb    c    0.396797    0.396797    0.396797      0.1090    1.000000    
      2 Sb    c    0.603203    0.603203    0.603203      0.1090    1.000000    
      3 Te1   c    0.060000    0.060000    0.060000      0.1600    1.000000    
      4 Te2   c    0.784571    0.784571    0.784571     -0.1890    1.000000    
      5 Te2   c    0.215429    0.215429    0.215429     -0.1890    1.000000    
--------------------------------------------------------------------------------



********************************************************************************
*  Input for Configuration =  15                                               *
********************************************************************************

  Formula = Sb2Te3                                                      

  Number of irreducible atoms/shells =       5


  Total number atoms/shells =       5

  Dimensionality = 3               :  Bulk   



  Cartesian lattice vectors (Angstroms) :

       -2.504286    0.000000   10.443767
        1.252143   -2.168775   10.443767
        1.252143    2.168775   10.443767

  Cell parameters (Angstroms/Degrees):

  a =      10.7398    alpha =  23.3006
  b =      10.7398    beta  =  23.3006
  c =      10.7398    gamma =  23.3006

  Initial cell volume =         170.167643 Angs**3

  Temperature of configuration =  0.000     K 

  Pressure of configuration =         0.000 GPa 

  Fractional coordinates of asymmetric unit :

--------------------------------------------------------------------------------
   No.  Atomic       x           y          z         Charge      Occupancy
        Label      (Frac)      (Frac)     (Frac)        (e)         (Frac)  
--------------------------------------------------------------------------------
      1 Sb    c    0.396797    0.396797    0.396797      0.1090    1.000000    
      2 Sb    c    0.603203    0.603203    0.603203      0.1090    1.000000    
      3 Te1   c    0.070000    0.070000    0.070000      0.1600    1.000000    
      4 Te2   c    0.784571    0.784571    0.784571     -0.1890    1.000000    
      5 Te2   c    0.215429    0.215429    0.215429     -0.1890    1.000000    
--------------------------------------------------------------------------------



********************************************************************************
*  Input for Configuration =  16                                               *
********************************************************************************

  Formula = Sb2Te3                                                      

  Number of irreducible atoms/shells =       5


  Total number atoms/shells =       5

  Dimensionality = 3               :  Bulk   



  Cartesian lattice vectors (Angstroms) :

       -2.504286    0.000000   10.443767
        1.252143   -2.168775   10.443767
        1.252143    2.168775   10.443767

  Cell parameters (Angstroms/Degrees):

  a =      10.7398    alpha =  23.3006
  b =      10.7398    beta  =  23.3006
  c =      10.7398    gamma =  23.3006

  Initial cell volume =         170.167643 Angs**3

  Temperature of configuration =  0.000     K 

  Pressure of configuration =         0.000 GPa 

  Fractional coordinates of asymmetric unit :

--------------------------------------------------------------------------------
   No.  Atomic       x           y          z         Charge      Occupancy
        Label      (Frac)      (Frac)     (Frac)        (e)         (Frac)  
--------------------------------------------------------------------------------
      1 Sb    c    0.396797    0.396797    0.396797      0.1090    1.000000    
      2 Sb    c    0.603203    0.603203    0.603203      0.1090    1.000000    
      3 Te1   c    0.000000    0.000000    0.000000      0.1600    1.000000    
      4 Te2   c    0.729651    0.729651    0.729651     -0.1890    1.000000    
      5 Te2   c    0.215429    0.215429    0.215429     -0.1890    1.000000    
--------------------------------------------------------------------------------



********************************************************************************
*  Input for Configuration =  17                                               *
********************************************************************************

  Formula = Sb2Te3                                                      

  Number of irreducible atoms/shells =       5


  Total number atoms/shells =       5

  Dimensionality = 3               :  Bulk   



  Cartesian lattice vectors (Angstroms) :

       -2.504286    0.000000   10.443767
        1.252143   -2.168775   10.443767
        1.252143    2.168775   10.443767

  Cell parameters (Angstroms/Degrees):

  a =      10.7398    alpha =  23.3006
  b =      10.7398    beta  =  23.3006
  c =      10.7398    gamma =  23.3006

  Initial cell volume =         170.167643 Angs**3

  Temperature of configuration =  0.000     K 

  Pressure of configuration =         0.000 GPa 

  Fractional coordinates of asymmetric unit :

--------------------------------------------------------------------------------
   No.  Atomic       x           y          z         Charge      Occupancy
        Label      (Frac)      (Frac)     (Frac)        (e)         (Frac)  
--------------------------------------------------------------------------------
      1 Sb    c    0.396797    0.396797    0.396797      0.1090    1.000000    
      2 Sb    c    0.603203    0.603203    0.603203      0.1090    1.000000    
      3 Te1   c    0.000000    0.000000    0.000000      0.1600    1.000000    
      4 Te2   c    0.737497    0.737497    0.737497     -0.1890    1.000000    
      5 Te2   c    0.215429    0.215429    0.215429     -0.1890    1.000000    
--------------------------------------------------------------------------------



********************************************************************************
*  Input for Configuration =  18                                               *
********************************************************************************

  Formula = Sb2Te3                                                      

  Number of irreducible atoms/shells =       5


  Total number atoms/shells =       5

  Dimensionality = 3               :  Bulk   



  Cartesian lattice vectors (Angstroms) :

       -2.504286    0.000000   10.443767
        1.252143   -2.168775   10.443767
        1.252143    2.168775   10.443767

  Cell parameters (Angstroms/Degrees):

  a =      10.7398    alpha =  23.3006
  b =      10.7398    beta  =  23.3006
  c =      10.7398    gamma =  23.3006

  Initial cell volume =         170.167643 Angs**3

  Temperature of configuration =  0.000     K 

  Pressure of configuration =         0.000 GPa 

  Fractional coordinates of asymmetric unit :

--------------------------------------------------------------------------------
   No.  Atomic       x           y          z         Charge      Occupancy
        Label      (Frac)      (Frac)     (Frac)        (e)         (Frac)  
--------------------------------------------------------------------------------
      1 Sb    c    0.396797    0.396797    0.396797      0.1090    1.000000    
      2 Sb    c    0.603203    0.603203    0.603203      0.1090    1.000000    
      3 Te1   c    0.000000    0.000000    0.000000      0.1600    1.000000    
      4 Te2   c    0.745343    0.745343    0.745343     -0.1890    1.000000    
      5 Te2   c    0.215429    0.215429    0.215429     -0.1890    1.000000    
--------------------------------------------------------------------------------



********************************************************************************
*  Input for Configuration =  19                                               *
********************************************************************************

  Formula = Sb2Te3                                                      

  Number of irreducible atoms/shells =       5


  Total number atoms/shells =       5

  Dimensionality = 3               :  Bulk   



  Cartesian lattice vectors (Angstroms) :

       -2.504286    0.000000   10.443767
        1.252143   -2.168775   10.443767
        1.252143    2.168775   10.443767

  Cell parameters (Angstroms/Degrees):

  a =      10.7398    alpha =  23.3006
  b =      10.7398    beta  =  23.3006
  c =      10.7398    gamma =  23.3006

  Initial cell volume =         170.167643 Angs**3

  Temperature of configuration =  0.000     K 

  Pressure of configuration =         0.000 GPa 

  Fractional coordinates of asymmetric unit :

--------------------------------------------------------------------------------
   No.  Atomic       x           y          z         Charge      Occupancy
        Label      (Frac)      (Frac)     (Frac)        (e)         (Frac)  
--------------------------------------------------------------------------------
      1 Sb    c    0.396797    0.396797    0.396797      0.1090    1.000000    
      2 Sb    c    0.603203    0.603203    0.603203      0.1090    1.000000    
      3 Te1   c    0.000000    0.000000    0.000000      0.1600    1.000000    
      4 Te2   c    0.753188    0.753188    0.753188     -0.1890    1.000000    
      5 Te2   c    0.215429    0.215429    0.215429     -0.1890    1.000000    
--------------------------------------------------------------------------------



********************************************************************************
*  Input for Configuration =  20                                               *
********************************************************************************

  Formula = Sb2Te3                                                      

  Number of irreducible atoms/shells =       5


  Total number atoms/shells =       5

  Dimensionality = 3               :  Bulk   



  Cartesian lattice vectors (Angstroms) :

       -2.504286    0.000000   10.443767
        1.252143   -2.168775   10.443767
        1.252143    2.168775   10.443767

  Cell parameters (Angstroms/Degrees):

  a =      10.7398    alpha =  23.3006
  b =      10.7398    beta  =  23.3006
  c =      10.7398    gamma =  23.3006

  Initial cell volume =         170.167643 Angs**3

  Temperature of configuration =  0.000     K 

  Pressure of configuration =         0.000 GPa 

  Fractional coordinates of asymmetric unit :

--------------------------------------------------------------------------------
   No.  Atomic       x           y          z         Charge      Occupancy
        Label      (Frac)      (Frac)     (Frac)        (e)         (Frac)  
--------------------------------------------------------------------------------
      1 Sb    c    0.396797    0.396797    0.396797      0.1090    1.000000    
      2 Sb    c    0.603203    0.603203    0.603203      0.1090    1.000000    
      3 Te1   c    0.000000    0.000000    0.000000      0.1600    1.000000    
      4 Te2   c    0.761034    0.761034    0.761034     -0.1890    1.000000    
      5 Te2   c    0.215429    0.215429    0.215429     -0.1890    1.000000    
--------------------------------------------------------------------------------



********************************************************************************
*  Input for Configuration =  21                                               *
********************************************************************************

  Formula = Sb2Te3                                                      

  Number of irreducible atoms/shells =       5


  Total number atoms/shells =       5

  Dimensionality = 3               :  Bulk   



  Cartesian lattice vectors (Angstroms) :

       -2.504286    0.000000   10.443767
        1.252143   -2.168775   10.443767
        1.252143    2.168775   10.443767

  Cell parameters (Angstroms/Degrees):

  a =      10.7398    alpha =  23.3006
  b =      10.7398    beta  =  23.3006
  c =      10.7398    gamma =  23.3006

  Initial cell volume =         170.167643 Angs**3

  Temperature of configuration =  0.000     K 

  Pressure of configuration =         0.000 GPa 

  Fractional coordinates of asymmetric unit :

--------------------------------------------------------------------------------
   No.  Atomic       x           y          z         Charge      Occupancy
        Label      (Frac)      (Frac)     (Frac)        (e)         (Frac)  
--------------------------------------------------------------------------------
      1 Sb    c    0.396797    0.396797    0.396797      0.1090    1.000000    
      2 Sb    c    0.603203    0.603203    0.603203      0.1090    1.000000    
      3 Te1   c    0.000000    0.000000    0.000000      0.1600    1.000000    
      4 Te2   c    0.768880    0.768880    0.768880     -0.1890    1.000000    
      5 Te2   c    0.215429    0.215429    0.215429     -0.1890    1.000000    
--------------------------------------------------------------------------------



********************************************************************************
*  Input for Configuration =  22                                               *
********************************************************************************

  Formula = Sb2Te3                                                      

  Number of irreducible atoms/shells =       5


  Total number atoms/shells =       5

  Dimensionality = 3               :  Bulk   



  Cartesian lattice vectors (Angstroms) :

       -2.504286    0.000000   10.443767
        1.252143   -2.168775   10.443767
        1.252143    2.168775   10.443767

  Cell parameters (Angstroms/Degrees):

  a =      10.7398    alpha =  23.3006
  b =      10.7398    beta  =  23.3006
  c =      10.7398    gamma =  23.3006

  Initial cell volume =         170.167643 Angs**3

  Temperature of configuration =  0.000     K 

  Pressure of configuration =         0.000 GPa 

  Fractional coordinates of asymmetric unit :

--------------------------------------------------------------------------------
   No.  Atomic       x           y          z         Charge      Occupancy
        Label      (Frac)      (Frac)     (Frac)        (e)         (Frac)  
--------------------------------------------------------------------------------
      1 Sb    c    0.396797    0.396797    0.396797      0.1090    1.000000    
      2 Sb    c    0.603203    0.603203    0.603203      0.1090    1.000000    
      3 Te1   c    0.000000    0.000000    0.000000      0.1600    1.000000    
      4 Te2   c    0.776726    0.776726    0.776726     -0.1890    1.000000    
      5 Te2   c    0.215429    0.215429    0.215429     -0.1890    1.000000    
--------------------------------------------------------------------------------



********************************************************************************
*  Input for Configuration =  23                                               *
********************************************************************************

  Formula = Sb2Te3                                                      

  Number of irreducible atoms/shells =       5


  Total number atoms/shells =       5

  Dimensionality = 3               :  Bulk   



  Cartesian lattice vectors (Angstroms) :

       -2.504286    0.000000   10.443767
        1.252143   -2.168775   10.443767
        1.252143    2.168775   10.443767

  Cell parameters (Angstroms/Degrees):

  a =      10.7398    alpha =  23.3006
  b =      10.7398    beta  =  23.3006
  c =      10.7398    gamma =  23.3006

  Initial cell volume =         170.167643 Angs**3

  Temperature of configuration =  0.000     K 

  Pressure of configuration =         0.000 GPa 

  Fractional coordinates of asymmetric unit :

--------------------------------------------------------------------------------
   No.  Atomic       x           y          z         Charge      Occupancy
        Label      (Frac)      (Frac)     (Frac)        (e)         (Frac)  
--------------------------------------------------------------------------------
      1 Sb    c    0.396797    0.396797    0.396797      0.1090    1.000000    
      2 Sb    c    0.603203    0.603203    0.603203      0.1090    1.000000    
      3 Te1   c    0.000000    0.000000    0.000000      0.1600    1.000000    
      4 Te2   c    0.784571    0.784571    0.784571     -0.1890    1.000000    
      5 Te2   c    0.215429    0.215429    0.215429     -0.1890    1.000000    
--------------------------------------------------------------------------------



********************************************************************************
*  Input for Configuration =  24                                               *
********************************************************************************

  Formula = Sb2Te3                                                      

  Number of irreducible atoms/shells =       5


  Total number atoms/shells =       5

  Dimensionality = 3               :  Bulk   



  Cartesian lattice vectors (Angstroms) :

       -2.504286    0.000000   10.443767
        1.252143   -2.168775   10.443767
        1.252143    2.168775   10.443767

  Cell parameters (Angstroms/Degrees):

  a =      10.7398    alpha =  23.3006
  b =      10.7398    beta  =  23.3006
  c =      10.7398    gamma =  23.3006

  Initial cell volume =         170.167643 Angs**3

  Temperature of configuration =  0.000     K 

  Pressure of configuration =         0.000 GPa 

  Fractional coordinates of asymmetric unit :

--------------------------------------------------------------------------------
   No.  Atomic       x           y          z         Charge      Occupancy
        Label      (Frac)      (Frac)     (Frac)        (e)         (Frac)  
--------------------------------------------------------------------------------
      1 Sb    c    0.396797    0.396797    0.396797      0.1090    1.000000    
      2 Sb    c    0.603203    0.603203    0.603203      0.1090    1.000000    
      3 Te1   c    0.000000    0.000000    0.000000      0.1600    1.000000    
      4 Te2   c    0.792417    0.792417    0.792417     -0.1890    1.000000    
      5 Te2   c    0.215429    0.215429    0.215429     -0.1890    1.000000    
--------------------------------------------------------------------------------



********************************************************************************
*  Input for Configuration =  25                                               *
********************************************************************************

  Formula = Sb2Te3                                                      

  Number of irreducible atoms/shells =       5


  Total number atoms/shells =       5

  Dimensionality = 3               :  Bulk   



  Cartesian lattice vectors (Angstroms) :

       -2.504286    0.000000   10.443767
        1.252143   -2.168775   10.443767
        1.252143    2.168775   10.443767

  Cell parameters (Angstroms/Degrees):

  a =      10.7398    alpha =  23.3006
  b =      10.7398    beta  =  23.3006
  c =      10.7398    gamma =  23.3006

  Initial cell volume =         170.167643 Angs**3

  Temperature of configuration =  0.000     K 

  Pressure of configuration =         0.000 GPa 

  Fractional coordinates of asymmetric unit :

--------------------------------------------------------------------------------
   No.  Atomic       x           y          z         Charge      Occupancy
        Label      (Frac)      (Frac)     (Frac)        (e)         (Frac)  
--------------------------------------------------------------------------------
      1 Sb    c    0.396797    0.396797    0.396797      0.1090    1.000000    
      2 Sb    c    0.603203    0.603203    0.603203      0.1090    1.000000    
      3 Te1   c    0.000000    0.000000    0.000000      0.1600    1.000000    
      4 Te2   c    0.800263    0.800263    0.800263     -0.1890    1.000000    
      5 Te2   c    0.215429    0.215429    0.215429     -0.1890    1.000000    
--------------------------------------------------------------------------------



********************************************************************************
*  Input for Configuration =  26                                               *
********************************************************************************

  Formula = Sb2Te3                                                      

  Number of irreducible atoms/shells =       5


  Total number atoms/shells =       5

  Dimensionality = 3               :  Bulk   



  Cartesian lattice vectors (Angstroms) :

       -2.504286    0.000000   10.443767
        1.252143   -2.168775   10.443767
        1.252143    2.168775   10.443767

  Cell parameters (Angstroms/Degrees):

  a =      10.7398    alpha =  23.3006
  b =      10.7398    beta  =  23.3006
  c =      10.7398    gamma =  23.3006

  Initial cell volume =         170.167643 Angs**3

  Temperature of configuration =  0.000     K 

  Pressure of configuration =         0.000 GPa 

  Fractional coordinates of asymmetric unit :

--------------------------------------------------------------------------------
   No.  Atomic       x           y          z         Charge      Occupancy
        Label      (Frac)      (Frac)     (Frac)        (e)         (Frac)  
--------------------------------------------------------------------------------
      1 Sb    c    0.396797    0.396797    0.396797      0.1090    1.000000    
      2 Sb    c    0.603203    0.603203    0.603203      0.1090    1.000000    
      3 Te1   c    0.000000    0.000000    0.000000      0.1600    1.000000    
      4 Te2   c    0.808108    0.808108    0.808108     -0.1890    1.000000    
      5 Te2   c    0.215429    0.215429    0.215429     -0.1890    1.000000    
--------------------------------------------------------------------------------



********************************************************************************
*  Input for Configuration =  27                                               *
********************************************************************************

  Formula = Sb2Te3                                                      

  Number of irreducible atoms/shells =       5


  Total number atoms/shells =       5

  Dimensionality = 3               :  Bulk   



  Cartesian lattice vectors (Angstroms) :

       -2.504286    0.000000   10.443767
        1.252143   -2.168775   10.443767
        1.252143    2.168775   10.443767

  Cell parameters (Angstroms/Degrees):

  a =      10.7398    alpha =  23.3006
  b =      10.7398    beta  =  23.3006
  c =      10.7398    gamma =  23.3006

  Initial cell volume =         170.167643 Angs**3

  Temperature of configuration =  0.000     K 

  Pressure of configuration =         0.000 GPa 

  Fractional coordinates of asymmetric unit :

--------------------------------------------------------------------------------
   No.  Atomic       x           y          z         Charge      Occupancy
        Label      (Frac)      (Frac)     (Frac)        (e)         (Frac)  
--------------------------------------------------------------------------------
      1 Sb    c    0.396797    0.396797    0.396797      0.1090    1.000000    
      2 Sb    c    0.603203    0.603203    0.603203      0.1090    1.000000    
      3 Te1   c    0.000000    0.000000    0.000000      0.1600    1.000000    
      4 Te2   c    0.815954    0.815954    0.815954     -0.1890    1.000000    
      5 Te2   c    0.215429    0.215429    0.215429     -0.1890    1.000000    
--------------------------------------------------------------------------------



********************************************************************************
*  Input for Configuration =  28                                               *
********************************************************************************

  Formula = Sb2Te3                                                      

  Number of irreducible atoms/shells =       5


  Total number atoms/shells =       5

  Dimensionality = 3               :  Bulk   



  Cartesian lattice vectors (Angstroms) :

       -2.504286    0.000000   10.443767
        1.252143   -2.168775   10.443767
        1.252143    2.168775   10.443767

  Cell parameters (Angstroms/Degrees):

  a =      10.7398    alpha =  23.3006
  b =      10.7398    beta  =  23.3006
  c =      10.7398    gamma =  23.3006

  Initial cell volume =         170.167643 Angs**3

  Temperature of configuration =  0.000     K 

  Pressure of configuration =         0.000 GPa 

  Fractional coordinates of asymmetric unit :

--------------------------------------------------------------------------------
   No.  Atomic       x           y          z         Charge      Occupancy
        Label      (Frac)      (Frac)     (Frac)        (e)         (Frac)  
--------------------------------------------------------------------------------
      1 Sb    c    0.396797    0.396797    0.396797      0.1090    1.000000    
      2 Sb    c    0.603203    0.603203    0.603203      0.1090    1.000000    
      3 Te1   c    0.000000    0.000000    0.000000      0.1600    1.000000    
      4 Te2   c    0.823800    0.823800    0.823800     -0.1890    1.000000    
      5 Te2   c    0.215429    0.215429    0.215429     -0.1890    1.000000    
--------------------------------------------------------------------------------



********************************************************************************
*  Input for Configuration =  29                                               *
********************************************************************************

  Formula = Sb2Te3                                                      

  Number of irreducible atoms/shells =       5


  Total number atoms/shells =       5

  Dimensionality = 3               :  Bulk   



  Cartesian lattice vectors (Angstroms) :

       -2.504286    0.000000   10.443767
        1.252143   -2.168775   10.443767
        1.252143    2.168775   10.443767

  Cell parameters (Angstroms/Degrees):

  a =      10.7398    alpha =  23.3006
  b =      10.7398    beta  =  23.3006
  c =      10.7398    gamma =  23.3006

  Initial cell volume =         170.167643 Angs**3

  Temperature of configuration =  0.000     K 

  Pressure of configuration =         0.000 GPa 

  Fractional coordinates of asymmetric unit :

--------------------------------------------------------------------------------
   No.  Atomic       x           y          z         Charge      Occupancy
        Label      (Frac)      (Frac)     (Frac)        (e)         (Frac)  
--------------------------------------------------------------------------------
      1 Sb    c    0.396797    0.396797    0.396797      0.1090    1.000000    
      2 Sb    c    0.603203    0.603203    0.603203      0.1090    1.000000    
      3 Te1   c    0.000000    0.000000    0.000000      0.1600    1.000000    
      4 Te2   c    0.831646    0.831646    0.831646     -0.1890    1.000000    
      5 Te2   c    0.215429    0.215429    0.215429     -0.1890    1.000000    
--------------------------------------------------------------------------------



********************************************************************************
*  Input for Configuration =  30                                               *
********************************************************************************

  Formula = Sb2Te3                                                      

  Number of irreducible atoms/shells =       5


  Total number atoms/shells =       5

  Dimensionality = 3               :  Bulk   



  Cartesian lattice vectors (Angstroms) :

       -2.504286    0.000000   10.443767
        1.252143   -2.168775   10.443767
        1.252143    2.168775   10.443767

  Cell parameters (Angstroms/Degrees):

  a =      10.7398    alpha =  23.3006
  b =      10.7398    beta  =  23.3006
  c =      10.7398    gamma =  23.3006

  Initial cell volume =         170.167643 Angs**3

  Temperature of configuration =  0.000     K 

  Pressure of configuration =         0.000 GPa 

  Fractional coordinates of asymmetric unit :

--------------------------------------------------------------------------------
   No.  Atomic       x           y          z         Charge      Occupancy
        Label      (Frac)      (Frac)     (Frac)        (e)         (Frac)  
--------------------------------------------------------------------------------
      1 Sb    c    0.396797    0.396797    0.396797      0.1090    1.000000    
      2 Sb    c    0.603203    0.603203    0.603203      0.1090    1.000000    
      3 Te1   c    0.000000    0.000000    0.000000      0.1600    1.000000    
      4 Te2   c    0.839491    0.839491    0.839491     -0.1890    1.000000    
      5 Te2   c    0.215429    0.215429    0.215429     -0.1890    1.000000    
--------------------------------------------------------------------------------



********************************************************************************
*  Input for Configuration =  31                                               *
********************************************************************************

  Formula = Sb2Te3                                                      

  Number of irreducible atoms/shells =       5


  Total number atoms/shells =       5

  Dimensionality = 3               :  Bulk   



  Cartesian lattice vectors (Angstroms) :

       -2.504286    0.000000   10.443767
        1.252143   -2.168775   10.443767
        1.252143    2.168775   10.443767

  Cell parameters (Angstroms/Degrees):

  a =      10.7398    alpha =  23.3006
  b =      10.7398    beta  =  23.3006
  c =      10.7398    gamma =  23.3006

  Initial cell volume =         170.167643 Angs**3

  Temperature of configuration =  0.000     K 

  Pressure of configuration =         0.000 GPa 

  Fractional coordinates of asymmetric unit :

--------------------------------------------------------------------------------
   No.  Atomic       x           y          z         Charge      Occupancy
        Label      (Frac)      (Frac)     (Frac)        (e)         (Frac)  
--------------------------------------------------------------------------------
      1 Sb    c    0.396797    0.396797    0.396797      0.1090    1.000000    
      2 Sb    c    0.603203    0.603203    0.603203      0.1090    1.000000    
      3 Te1   c    0.000000    0.000000    0.000000      0.1600    1.000000    
      4 Te2   c    0.784571    0.784571    0.784571     -0.1890    1.000000    
      5 Te2   c    0.200349    0.200349    0.200349     -0.1890    1.000000    
--------------------------------------------------------------------------------



********************************************************************************
*  Input for Configuration =  32                                               *
********************************************************************************

  Formula = Sb2Te3                                                      

  Number of irreducible atoms/shells =       5


  Total number atoms/shells =       5

  Dimensionality = 3               :  Bulk   



  Cartesian lattice vectors (Angstroms) :

       -2.504286    0.000000   10.443767
        1.252143   -2.168775   10.443767
        1.252143    2.168775   10.443767

  Cell parameters (Angstroms/Degrees):

  a =      10.7398    alpha =  23.3006
  b =      10.7398    beta  =  23.3006
  c =      10.7398    gamma =  23.3006

  Initial cell volume =         170.167643 Angs**3

  Temperature of configuration =  0.000     K 

  Pressure of configuration =         0.000 GPa 

  Fractional coordinates of asymmetric unit :

--------------------------------------------------------------------------------
   No.  Atomic       x           y          z         Charge      Occupancy
        Label      (Frac)      (Frac)     (Frac)        (e)         (Frac)  
--------------------------------------------------------------------------------
      1 Sb    c    0.396797    0.396797    0.396797      0.1090    1.000000    
      2 Sb    c    0.603203    0.603203    0.603203      0.1090    1.000000    
      3 Te1   c    0.000000    0.000000    0.000000      0.1600    1.000000    
      4 Te2   c    0.784571    0.784571    0.784571     -0.1890    1.000000    
      5 Te2   c    0.202503    0.202503    0.202503     -0.1890    1.000000    
--------------------------------------------------------------------------------



********************************************************************************
*  Input for Configuration =  33                                               *
********************************************************************************

  Formula = Sb2Te3                                                      

  Number of irreducible atoms/shells =       5


  Total number atoms/shells =       5

  Dimensionality = 3               :  Bulk   



  Cartesian lattice vectors (Angstroms) :

       -2.504286    0.000000   10.443767
        1.252143   -2.168775   10.443767
        1.252143    2.168775   10.443767

  Cell parameters (Angstroms/Degrees):

  a =      10.7398    alpha =  23.3006
  b =      10.7398    beta  =  23.3006
  c =      10.7398    gamma =  23.3006

  Initial cell volume =         170.167643 Angs**3

  Temperature of configuration =  0.000     K 

  Pressure of configuration =         0.000 GPa 

  Fractional coordinates of asymmetric unit :

--------------------------------------------------------------------------------
   No.  Atomic       x           y          z         Charge      Occupancy
        Label      (Frac)      (Frac)     (Frac)        (e)         (Frac)  
--------------------------------------------------------------------------------
      1 Sb    c    0.396797    0.396797    0.396797      0.1090    1.000000    
      2 Sb    c    0.603203    0.603203    0.603203      0.1090    1.000000    
      3 Te1   c    0.000000    0.000000    0.000000      0.1600    1.000000    
      4 Te2   c    0.784571    0.784571    0.784571     -0.1890    1.000000    
      5 Te2   c    0.204657    0.204657    0.204657     -0.1890    1.000000    
--------------------------------------------------------------------------------



********************************************************************************
*  Input for Configuration =  34                                               *
********************************************************************************

  Formula = Sb2Te3                                                      

  Number of irreducible atoms/shells =       5


  Total number atoms/shells =       5

  Dimensionality = 3               :  Bulk   



  Cartesian lattice vectors (Angstroms) :

       -2.504286    0.000000   10.443767
        1.252143   -2.168775   10.443767
        1.252143    2.168775   10.443767

  Cell parameters (Angstroms/Degrees):

  a =      10.7398    alpha =  23.3006
  b =      10.7398    beta  =  23.3006
  c =      10.7398    gamma =  23.3006

  Initial cell volume =         170.167643 Angs**3

  Temperature of configuration =  0.000     K 

  Pressure of configuration =         0.000 GPa 

  Fractional coordinates of asymmetric unit :

--------------------------------------------------------------------------------
   No.  Atomic       x           y          z         Charge      Occupancy
        Label      (Frac)      (Frac)     (Frac)        (e)         (Frac)  
--------------------------------------------------------------------------------
      1 Sb    c    0.396797    0.396797    0.396797      0.1090    1.000000    
      2 Sb    c    0.603203    0.603203    0.603203      0.1090    1.000000    
      3 Te1   c    0.000000    0.000000    0.000000      0.1600    1.000000    
      4 Te2   c    0.784571    0.784571    0.784571     -0.1890    1.000000    
      5 Te2   c    0.206812    0.206812    0.206812     -0.1890    1.000000    
--------------------------------------------------------------------------------



********************************************************************************
*  Input for Configuration =  35                                               *
********************************************************************************

  Formula = Sb2Te3                                                      

  Number of irreducible atoms/shells =       5


  Total number atoms/shells =       5

  Dimensionality = 3               :  Bulk   



  Cartesian lattice vectors (Angstroms) :

       -2.504286    0.000000   10.443767
        1.252143   -2.168775   10.443767
        1.252143    2.168775   10.443767

  Cell parameters (Angstroms/Degrees):

  a =      10.7398    alpha =  23.3006
  b =      10.7398    beta  =  23.3006
  c =      10.7398    gamma =  23.3006

  Initial cell volume =         170.167643 Angs**3

  Temperature of configuration =  0.000     K 

  Pressure of configuration =         0.000 GPa 

  Fractional coordinates of asymmetric unit :

--------------------------------------------------------------------------------
   No.  Atomic       x           y          z         Charge      Occupancy
        Label      (Frac)      (Frac)     (Frac)        (e)         (Frac)  
--------------------------------------------------------------------------------
      1 Sb    c    0.396797    0.396797    0.396797      0.1090    1.000000    
      2 Sb    c    0.603203    0.603203    0.603203      0.1090    1.000000    
      3 Te1   c    0.000000    0.000000    0.000000      0.1600    1.000000    
      4 Te2   c    0.784571    0.784571    0.784571     -0.1890    1.000000    
      5 Te2   c    0.208966    0.208966    0.208966     -0.1890    1.000000    
--------------------------------------------------------------------------------



********************************************************************************
*  Input for Configuration =  36                                               *
********************************************************************************

  Formula = Sb2Te3                                                      

  Number of irreducible atoms/shells =       5


  Total number atoms/shells =       5

  Dimensionality = 3               :  Bulk   



  Cartesian lattice vectors (Angstroms) :

       -2.504286    0.000000   10.443767
        1.252143   -2.168775   10.443767
        1.252143    2.168775   10.443767

  Cell parameters (Angstroms/Degrees):

  a =      10.7398    alpha =  23.3006
  b =      10.7398    beta  =  23.3006
  c =      10.7398    gamma =  23.3006

  Initial cell volume =         170.167643 Angs**3

  Temperature of configuration =  0.000     K 

  Pressure of configuration =         0.000 GPa 

  Fractional coordinates of asymmetric unit :

--------------------------------------------------------------------------------
   No.  Atomic       x           y          z         Charge      Occupancy
        Label      (Frac)      (Frac)     (Frac)        (e)         (Frac)  
--------------------------------------------------------------------------------
      1 Sb    c    0.396797    0.396797    0.396797      0.1090    1.000000    
      2 Sb    c    0.603203    0.603203    0.603203      0.1090    1.000000    
      3 Te1   c    0.000000    0.000000    0.000000      0.1600    1.000000    
      4 Te2   c    0.784571    0.784571    0.784571     -0.1890    1.000000    
      5 Te2   c    0.211120    0.211120    0.211120     -0.1890    1.000000    
--------------------------------------------------------------------------------



********************************************************************************
*  Input for Configuration =  37                                               *
********************************************************************************

  Formula = Sb2Te3                                                      

  Number of irreducible atoms/shells =       5


  Total number atoms/shells =       5

  Dimensionality = 3               :  Bulk   



  Cartesian lattice vectors (Angstroms) :

       -2.504286    0.000000   10.443767
        1.252143   -2.168775   10.443767
        1.252143    2.168775   10.443767

  Cell parameters (Angstroms/Degrees):

  a =      10.7398    alpha =  23.3006
  b =      10.7398    beta  =  23.3006
  c =      10.7398    gamma =  23.3006

  Initial cell volume =         170.167643 Angs**3

  Temperature of configuration =  0.000     K 

  Pressure of configuration =         0.000 GPa 

  Fractional coordinates of asymmetric unit :

--------------------------------------------------------------------------------
   No.  Atomic       x           y          z         Charge      Occupancy
        Label      (Frac)      (Frac)     (Frac)        (e)         (Frac)  
--------------------------------------------------------------------------------
      1 Sb    c    0.396797    0.396797    0.396797      0.1090    1.000000    
      2 Sb    c    0.603203    0.603203    0.603203      0.1090    1.000000    
      3 Te1   c    0.000000    0.000000    0.000000      0.1600    1.000000    
      4 Te2   c    0.784571    0.784571    0.784571     -0.1890    1.000000    
      5 Te2   c    0.213274    0.213274    0.213274     -0.1890    1.000000    
--------------------------------------------------------------------------------



********************************************************************************
*  Input for Configuration =  38                                               *
********************************************************************************

  Formula = Sb2Te3                                                      

  Number of irreducible atoms/shells =       5


  Total number atoms/shells =       5

  Dimensionality = 3               :  Bulk   



  Cartesian lattice vectors (Angstroms) :

       -2.504286    0.000000   10.443767
        1.252143   -2.168775   10.443767
        1.252143    2.168775   10.443767

  Cell parameters (Angstroms/Degrees):

  a =      10.7398    alpha =  23.3006
  b =      10.7398    beta  =  23.3006
  c =      10.7398    gamma =  23.3006

  Initial cell volume =         170.167643 Angs**3

  Temperature of configuration =  0.000     K 

  Pressure of configuration =         0.000 GPa 

  Fractional coordinates of asymmetric unit :

--------------------------------------------------------------------------------
   No.  Atomic       x           y          z         Charge      Occupancy
        Label      (Frac)      (Frac)     (Frac)        (e)         (Frac)  
--------------------------------------------------------------------------------
      1 Sb    c    0.396797    0.396797    0.396797      0.1090    1.000000    
      2 Sb    c    0.603203    0.603203    0.603203      0.1090    1.000000    
      3 Te1   c    0.000000    0.000000    0.000000      0.1600    1.000000    
      4 Te2   c    0.784571    0.784571    0.784571     -0.1890    1.000000    
      5 Te2   c    0.215429    0.215429    0.215429     -0.1890    1.000000    
--------------------------------------------------------------------------------



********************************************************************************
*  Input for Configuration =  39                                               *
********************************************************************************

  Formula = Sb2Te3                                                      

  Number of irreducible atoms/shells =       5


  Total number atoms/shells =       5

  Dimensionality = 3               :  Bulk   



  Cartesian lattice vectors (Angstroms) :

       -2.504286    0.000000   10.443767
        1.252143   -2.168775   10.443767
        1.252143    2.168775   10.443767

  Cell parameters (Angstroms/Degrees):

  a =      10.7398    alpha =  23.3006
  b =      10.7398    beta  =  23.3006
  c =      10.7398    gamma =  23.3006

  Initial cell volume =         170.167643 Angs**3

  Temperature of configuration =  0.000     K 

  Pressure of configuration =         0.000 GPa 

  Fractional coordinates of asymmetric unit :

--------------------------------------------------------------------------------
   No.  Atomic       x           y          z         Charge      Occupancy
        Label      (Frac)      (Frac)     (Frac)        (e)         (Frac)  
--------------------------------------------------------------------------------
      1 Sb    c    0.396797    0.396797    0.396797      0.1090    1.000000    
      2 Sb    c    0.603203    0.603203    0.603203      0.1090    1.000000    
      3 Te1   c    0.000000    0.000000    0.000000      0.1600    1.000000    
      4 Te2   c    0.784571    0.784571    0.784571     -0.1890    1.000000    
      5 Te2   c    0.217583    0.217583    0.217583     -0.1890    1.000000    
--------------------------------------------------------------------------------



********************************************************************************
*  Input for Configuration =  40                                               *
********************************************************************************

  Formula = Sb2Te3                                                      

  Number of irreducible atoms/shells =       5


  Total number atoms/shells =       5

  Dimensionality = 3               :  Bulk   



  Cartesian lattice vectors (Angstroms) :

       -2.504286    0.000000   10.443767
        1.252143   -2.168775   10.443767
        1.252143    2.168775   10.443767

  Cell parameters (Angstroms/Degrees):

  a =      10.7398    alpha =  23.3006
  b =      10.7398    beta  =  23.3006
  c =      10.7398    gamma =  23.3006

  Initial cell volume =         170.167643 Angs**3

  Temperature of configuration =  0.000     K 

  Pressure of configuration =         0.000 GPa 

  Fractional coordinates of asymmetric unit :

--------------------------------------------------------------------------------
   No.  Atomic       x           y          z         Charge      Occupancy
        Label      (Frac)      (Frac)     (Frac)        (e)         (Frac)  
--------------------------------------------------------------------------------
      1 Sb    c    0.396797    0.396797    0.396797      0.1090    1.000000    
      2 Sb    c    0.603203    0.603203    0.603203      0.1090    1.000000    
      3 Te1   c    0.000000    0.000000    0.000000      0.1600    1.000000    
      4 Te2   c    0.784571    0.784571    0.784571     -0.1890    1.000000    
      5 Te2   c    0.219737    0.219737    0.219737     -0.1890    1.000000    
--------------------------------------------------------------------------------



********************************************************************************
*  Input for Configuration =  41                                               *
********************************************************************************

  Formula = Sb2Te3                                                      

  Number of irreducible atoms/shells =       5


  Total number atoms/shells =       5

  Dimensionality = 3               :  Bulk   



  Cartesian lattice vectors (Angstroms) :

       -2.504286    0.000000   10.443767
        1.252143   -2.168775   10.443767
        1.252143    2.168775   10.443767

  Cell parameters (Angstroms/Degrees):

  a =      10.7398    alpha =  23.3006
  b =      10.7398    beta  =  23.3006
  c =      10.7398    gamma =  23.3006

  Initial cell volume =         170.167643 Angs**3

  Temperature of configuration =  0.000     K 

  Pressure of configuration =         0.000 GPa 

  Fractional coordinates of asymmetric unit :

--------------------------------------------------------------------------------
   No.  Atomic       x           y          z         Charge      Occupancy
        Label      (Frac)      (Frac)     (Frac)        (e)         (Frac)  
--------------------------------------------------------------------------------
      1 Sb    c    0.396797    0.396797    0.396797      0.1090    1.000000    
      2 Sb    c    0.603203    0.603203    0.603203      0.1090    1.000000    
      3 Te1   c    0.000000    0.000000    0.000000      0.1600    1.000000    
      4 Te2   c    0.784571    0.784571    0.784571     -0.1890    1.000000    
      5 Te2   c    0.221892    0.221892    0.221892     -0.1890    1.000000    
--------------------------------------------------------------------------------



********************************************************************************
*  Input for Configuration =  42                                               *
********************************************************************************

  Formula = Sb2Te3                                                      

  Number of irreducible atoms/shells =       5


  Total number atoms/shells =       5

  Dimensionality = 3               :  Bulk   



  Cartesian lattice vectors (Angstroms) :

       -2.504286    0.000000   10.443767
        1.252143   -2.168775   10.443767
        1.252143    2.168775   10.443767

  Cell parameters (Angstroms/Degrees):

  a =      10.7398    alpha =  23.3006
  b =      10.7398    beta  =  23.3006
  c =      10.7398    gamma =  23.3006

  Initial cell volume =         170.167643 Angs**3

  Temperature of configuration =  0.000     K 

  Pressure of configuration =         0.000 GPa 

  Fractional coordinates of asymmetric unit :

--------------------------------------------------------------------------------
   No.  Atomic       x           y          z         Charge      Occupancy
        Label      (Frac)      (Frac)     (Frac)        (e)         (Frac)  
--------------------------------------------------------------------------------
      1 Sb    c    0.396797    0.396797    0.396797      0.1090    1.000000    
      2 Sb    c    0.603203    0.603203    0.603203      0.1090    1.000000    
      3 Te1   c    0.000000    0.000000    0.000000      0.1600    1.000000    
      4 Te2   c    0.784571    0.784571    0.784571     -0.1890    1.000000    
      5 Te2   c    0.224046    0.224046    0.224046     -0.1890    1.000000    
--------------------------------------------------------------------------------



********************************************************************************
*  Input for Configuration =  43                                               *
********************************************************************************

  Formula = Sb2Te3                                                      

  Number of irreducible atoms/shells =       5


  Total number atoms/shells =       5

  Dimensionality = 3               :  Bulk   



  Cartesian lattice vectors (Angstroms) :

       -2.504286    0.000000   10.443767
        1.252143   -2.168775   10.443767
        1.252143    2.168775   10.443767

  Cell parameters (Angstroms/Degrees):

  a =      10.7398    alpha =  23.3006
  b =      10.7398    beta  =  23.3006
  c =      10.7398    gamma =  23.3006

  Initial cell volume =         170.167643 Angs**3

  Temperature of configuration =  0.000     K 

  Pressure of configuration =         0.000 GPa 

  Fractional coordinates of asymmetric unit :

--------------------------------------------------------------------------------
   No.  Atomic       x           y          z         Charge      Occupancy
        Label      (Frac)      (Frac)     (Frac)        (e)         (Frac)  
--------------------------------------------------------------------------------
      1 Sb    c    0.396797    0.396797    0.396797      0.1090    1.000000    
      2 Sb    c    0.603203    0.603203    0.603203      0.1090    1.000000    
      3 Te1   c    0.000000    0.000000    0.000000      0.1600    1.000000    
      4 Te2   c    0.784571    0.784571    0.784571     -0.1890    1.000000    
      5 Te2   c    0.226200    0.226200    0.226200     -0.1890    1.000000    
--------------------------------------------------------------------------------



********************************************************************************
*  Input for Configuration =  44                                               *
********************************************************************************

  Formula = Sb2Te3                                                      

  Number of irreducible atoms/shells =       5


  Total number atoms/shells =       5

  Dimensionality = 3               :  Bulk   



  Cartesian lattice vectors (Angstroms) :

       -2.504286    0.000000   10.443767
        1.252143   -2.168775   10.443767
        1.252143    2.168775   10.443767

  Cell parameters (Angstroms/Degrees):

  a =      10.7398    alpha =  23.3006
  b =      10.7398    beta  =  23.3006
  c =      10.7398    gamma =  23.3006

  Initial cell volume =         170.167643 Angs**3

  Temperature of configuration =  0.000     K 

  Pressure of configuration =         0.000 GPa 

  Fractional coordinates of asymmetric unit :

--------------------------------------------------------------------------------
   No.  Atomic       x           y          z         Charge      Occupancy
        Label      (Frac)      (Frac)     (Frac)        (e)         (Frac)  
--------------------------------------------------------------------------------
      1 Sb    c    0.396797    0.396797    0.396797      0.1090    1.000000    
      2 Sb    c    0.603203    0.603203    0.603203      0.1090    1.000000    
      3 Te1   c    0.000000    0.000000    0.000000      0.1600    1.000000    
      4 Te2   c    0.784571    0.784571    0.784571     -0.1890    1.000000    
      5 Te2   c    0.228354    0.228354    0.228354     -0.1890    1.000000    
--------------------------------------------------------------------------------



********************************************************************************
*  Input for Configuration =  45                                               *
********************************************************************************

  Formula = Sb2Te3                                                      

  Number of irreducible atoms/shells =       5


  Total number atoms/shells =       5

  Dimensionality = 3               :  Bulk   



  Cartesian lattice vectors (Angstroms) :

       -2.504286    0.000000   10.443767
        1.252143   -2.168775   10.443767
        1.252143    2.168775   10.443767

[...]
!!!!!!!!!!!!!!!!!!!!!!!!!!!!!!!!!!!!!!!!!!!!!!!!!!!!!!!!!!!!!!!!!!!!!!!!!!!!!!!!


  Components of energy : 

--------------------------------------------------------------------------------
  Interatomic potentials     =          -2.94164000 eV
  Monopole - monopole (real) =          -0.00682026 eV
  Monopole - monopole (recip)=          -0.02911664 eV
  Monopole - monopole (total)=          -0.03593690 eV
  Energy shift               =         -15.28088203 eV
--------------------------------------------------------------------------------
  Total lattice energy       =         -18.25845893 eV
--------------------------------------------------------------------------------
  Total lattice energy       =           -1761.6622 kJ/(mole unit cells)
--------------------------------------------------------------------------------

  Born effective charge tensors : 

-------------------------------------------------------------------------------
  Atom             x           y             z
-------------------------------------------------------------------------------
   1 Sb    x       0.0808      0.0000      0.0000
           y       0.0000      0.0808      0.0000
           z       0.0000      0.0000      0.0808
-------------------------------------------------------------------------------
   2 Sb    x       0.0808      0.0000      0.0000
           y       0.0000      0.0808      0.0000
           z       0.0000      0.0000      0.0808
-------------------------------------------------------------------------------
   3 Te1   x       0.0444      0.0000      0.0000
           y       0.0000      0.0444      0.0000
           z       0.0000      0.0000      0.0444
-------------------------------------------------------------------------------
   4 Te2   x      -0.1030      0.0000      0.0000
           y       0.0000     -0.1030      0.0000
           z       0.0000      0.0000     -0.1030
-------------------------------------------------------------------------------
   5 Te2   x      -0.1030      0.0000      0.0000
           y       0.0000     -0.1030      0.0000
           z       0.0000      0.0000     -0.1030
-------------------------------------------------------------------------------




  Elastic Constant Matrix: (Units=GPa)

-------------------------------------------------------------------------------
  Indices      1         2         3         4         5         6    
-------------------------------------------------------------------------------
       1     27.0250   17.6941   21.8116   -3.7754   -1.2923   -2.1766
       2     17.6941   27.4639   15.2949    5.0930    7.6829    2.0821
       3     21.8116   15.2949   23.1718   -1.1574   -5.6136    1.4033
       4     -3.7754    5.0930   -1.1574    9.0385    0.8516    7.3554
       5     -1.2923    7.6829   -5.6136    0.8516   12.9934   -3.8429
       6     -2.1766    2.0821    1.4033    7.3554   -3.8429    8.8024
-------------------------------------------------------------------------------


  Elastic Compliance Matrix: (Units=1/GPa)

-------------------------------------------------------------------------------
  Indices      1         2         3         4         5         6    
-------------------------------------------------------------------------------
       1    0.263419 -0.092738 -0.180819  0.161530 -0.015291 -0.025754
       2   -0.092738  0.357470 -0.234618 -0.228870 -0.311316 -0.014751
       3   -0.180819 -0.234618  0.446709  0.065218  0.316314  0.023169
       4    0.161530 -0.228870  0.065218  0.894461 -0.086537 -0.701523
       5   -0.015291 -0.311316  0.316314 -0.086537  0.492587  0.306794
       6   -0.025754 -0.014751  0.023169 -0.701523  0.306794  0.827174
-------------------------------------------------------------------------------

 Mechanical properties :

-------------------------------------------------------------------------------
  Convention :                    Reuss         Voigt         Hill
-------------------------------------------------------------------------------
  Bulk  Modulus (GPa)     =      19.51286      20.80686      20.15986
  Shear Modulus (GPa)     =       1.15868       7.69087       4.42478
-------------------------------------------------------------------------------
  Velocity S-wave (km/s)  =       1.37686       3.54728       2.69062
  Velocity P-wave (km/s)  =       5.86967       7.12882       6.52967
-------------------------------------------------------------------------------
  Compressibility (1/GPa) =    0.05124825
-------------------------------------------------------------------------------
  Stress axis :                     x             y             z
-------------------------------------------------------------------------------
  Youngs Moduli (GPa)     =       3.79624       2.79744       2.23860
-------------------------------------------------------------------------------
  Poissons Ratio (x)      =                     0.25943       0.40478
  Poissons Ratio (y)      =       0.35205                     0.52521
  Poissons Ratio (z)      =       0.68643       0.65633
-------------------------------------------------------------------------------


  Piezoelectric Strain Matrix: (Units=C/m**2)

-------------------------------------------------------------------------------
  Indices      1         2         3         4         5         6    
-------------------------------------------------------------------------------
       x     0.00000   0.00000   0.00000  -0.00000  -0.00000  -0.00000
       y    -0.00000   0.00000   0.00000   0.00000  -0.00000   0.00000
       z    -0.00000   0.00000  -0.00000   0.00000   0.00000  -0.00000
-------------------------------------------------------------------------------


  Piezoelectric Stress Matrix: (Units=10**-11 C/N)

-------------------------------------------------------------------------------
  Indices      1         2         3         4         5         6    
-------------------------------------------------------------------------------
       x    -0.00000   0.00000   0.00000  -0.00000  -0.00000  -0.00000
       y    -0.00000  -0.00000   0.00000   0.00000  -0.00000  -0.00000
       z    -0.00000   0.00000  -0.00000  -0.00000  -0.00000  -0.00000
-------------------------------------------------------------------------------


  Static dielectric constant tensor : 

-------------------------------------------------------------------------------
              x         y         z
-------------------------------------------------------------------------------
       x     1.00630   0.00003   0.00002
       y     0.00003   1.00615   0.00000
       z     0.00002   0.00000   1.00615
--------------------------------------------------------------------------------

  Static refractive indices : 

-------------------------------------------------------------------------------
    1 =    1.00307      2 =    1.00307      3 =    1.00315
-------------------------------------------------------------------------------


  Time to end of properties =     176.9591 seconds


********************************************************************************
*  Output for configuration 103                                                *
********************************************************************************


  Components of energy : 

--------------------------------------------------------------------------------
  Interatomic potentials     =          -2.94164000 eV
  Monopole - monopole (real) =          -0.00682026 eV
  Monopole - monopole (recip)=          -0.02911664 eV
  Monopole - monopole (total)=          -0.03593690 eV
  Energy shift               =         -15.28088203 eV
--------------------------------------------------------------------------------
  Total lattice energy       =         -18.25845893 eV
--------------------------------------------------------------------------------
  Total lattice energy       =           -1761.6622 kJ/(mole unit cells)
--------------------------------------------------------------------------------


  Number of variables =     18

  Maximum number of calculations  =          1000
  Maximum Hessian update interval =            10
  Maximum step size               =   1.000000000
  Maximum parameter tolerance     =   0.000010000
  Maximum function  tolerance     =   0.000010000
  Maximum gradient  tolerance     =   0.001000000
  Maximum gradient  component     =   0.010000000

  Symmetry not applied to optimisation

  Cell parameters to be optimised using strains

  Newton-Raphson optimiser to be used

  BFGS hessian update to be used

  Dumpfile to be written after every cycle

  Start of bulk optimisation :

  Cycle:      0 Energy:       -18.258459  Gnorm:      0.071948  CPU:  176.983
  ** Hessian calculated **
  Cycle:      1 Energy:       -18.279135  Gnorm:      0.101915  CPU:  176.987
  Cycle:      2 Energy:       -18.280782  Gnorm:      0.037910  CPU:  177.011
  Cycle:      3 Energy:       -18.280935  Gnorm:      0.005776  CPU:  177.035
  Cycle:      4 Energy:       -18.280939  Gnorm:      0.001528  CPU:  177.055


  **** Optimisation achieved ****


  Final energy =     -18.28093960 eV
  Final Gnorm  =       0.00001112

  Components of energy : 

--------------------------------------------------------------------------------
  Interatomic potentials     =          -2.98322989 eV
  Monopole - monopole (real) =          -0.00530581 eV
  Monopole - monopole (recip)=          -0.01152187 eV
  Monopole - monopole (total)=          -0.01682768 eV
  Energy shift               =         -15.28088203 eV
--------------------------------------------------------------------------------
  Total lattice energy       =         -18.28093960 eV
--------------------------------------------------------------------------------
  Total lattice energy       =           -1763.8312 kJ/(mole unit cells)
--------------------------------------------------------------------------------

  Final fractional coordinates of atoms :

--------------------------------------------------------------------------------
   No.  Atomic        x           y          z          Radius
        Label       (Frac)      (Frac)     (Frac)       (Angs) 
--------------------------------------------------------------------------------
     1  Sb    c     0.396797    0.396797    0.396797    0.000000
     2  Sb    c     0.600753    0.600753    0.600753    0.000000
     3  Te1   c     0.998775    0.998775    0.998775    0.000000
     4  Te2   c     0.784548    0.784548    0.784548    0.000000
     5  Te2   c     0.213001    0.213001    0.213001    0.000000
--------------------------------------------------------------------------------

  Final Cartesian lattice vectors (Angstroms) :

       11.392144    0.197089    0.117015
       10.541031    4.325096    0.117015
       10.541031    2.173351    3.741215


  Final cell parameters and derivatives :

--------------------------------------------------------------------------------
       a           11.394450 Angstrom     dE/de1(xx)    -0.000024 eV/strain
       b           11.394450 Angstrom     dE/de2(yy)     0.000011 eV/strain
       c           11.394450 Angstrom     dE/de3(zz)     0.000012 eV/strain
       alpha       21.316579 Degrees      dE/de4(yz)    -0.000001 eV/strain
       beta        21.316579 Degrees      dE/de5(xz)    -0.000004 eV/strain
       gamma       21.316579 Degrees      dE/de6(xy)    -0.000008 eV/strain
--------------------------------------------------------------------------------

  Primitive cell volume =           171.256992 Angs**3

  Density of cell =      6.072816 g/cm**3

  Non-primitive cell volume =           171.256992 Angs**3


  Final internal derivatives :

--------------------------------------------------------------------------------
   No.  Atomic          x             y             z           Radius
        Label          (eV)          (eV)          (eV)        (eV/Angs)
--------------------------------------------------------------------------------
      1 Sb    c       0.000000      0.000000      0.000000      0.000000
      2 Sb    c      -0.000081     -0.000081     -0.000081      0.000000
      3 Te1   c       0.000000      0.000000      0.000000      0.000000
      4 Te2   c      -0.000057     -0.000057     -0.000057      0.000000
      5 Te2   c       0.000057      0.000057      0.000057      0.000000
--------------------------------------------------------------------------------
  Maximum abs         0.000081      0.000081      0.000081      0.000000
--------------------------------------------------------------------------------


  Born effective charge tensors : 

-------------------------------------------------------------------------------
  Atom             x           y             z
-------------------------------------------------------------------------------
   1 Sb    x       0.0808      0.0000      0.0000
           y       0.0000      0.0808      0.0000
           z       0.0000      0.0000      0.0808
-------------------------------------------------------------------------------
   2 Sb    x       0.0808      0.0000      0.0000
           y       0.0000      0.0808      0.0000
           z       0.0000      0.0000      0.0808
-------------------------------------------------------------------------------
   3 Te1   x       0.0444      0.0000      0.0000
           y       0.0000      0.0444      0.0000
           z       0.0000      0.0000      0.0444
-------------------------------------------------------------------------------
   4 Te2   x      -0.1030      0.0000      0.0000
           y       0.0000     -0.1030      0.0000
           z       0.0000      0.0000     -0.1030
-------------------------------------------------------------------------------
   5 Te2   x      -0.1030      0.0000      0.0000
           y       0.0000     -0.1030      0.0000
           z       0.0000      0.0000     -0.1030
-------------------------------------------------------------------------------




  Elastic Constant Matrix: (Units=GPa)

-------------------------------------------------------------------------------
  Indices      1         2         3         4         5         6    
-------------------------------------------------------------------------------
       1     28.3339   14.6304   17.7130   -2.8265   -0.4172   -0.7026
       2     14.6304   26.1389   13.0143    3.9933    6.0764    1.1753
       3     17.7130   13.0143   22.8582   -0.9851   -4.7780    1.0118
       4     -2.8265    3.9933   -0.9851    8.9496    0.4912    5.7674
       5     -0.4172    6.0764   -4.7780    0.4912   11.2309   -2.8902
       6     -0.7026    1.1753    1.0118    5.7674   -2.8902    8.0788
-------------------------------------------------------------------------------


  Elastic Compliance Matrix: (Units=1/GPa)

-------------------------------------------------------------------------------
  Indices      1         2         3         4         5         6    
-------------------------------------------------------------------------------
       1    0.083251 -0.025236 -0.049720  0.044901 -0.011244 -0.018939
       2   -0.025236  0.117791 -0.069393 -0.065831 -0.090265  0.004064
       3   -0.049720 -0.069393  0.142703  0.020145  0.097708  0.008472
       4    0.044901 -0.065831  0.020145  0.288494 -0.018661 -0.201669
       5   -0.011244 -0.090265  0.097708 -0.018661  0.201833  0.085444
       6   -0.018939  0.004064  0.008472 -0.201669  0.085444  0.295018
-------------------------------------------------------------------------------

 Mechanical properties :

-------------------------------------------------------------------------------
  Convention :                    Reuss         Voigt         Hill
-------------------------------------------------------------------------------
  Bulk  Modulus (GPa)     =      18.16714      18.67183      18.41948
  Shear Modulus (GPa)     =       3.48156       7.78342       5.63249
-------------------------------------------------------------------------------
  Velocity S-wave (km/s)  =       2.39437       3.58006       3.04548
  Velocity P-wave (km/s)  =       6.12858       6.91633       6.53434
-------------------------------------------------------------------------------
  Compressibility (1/GPa) =    0.05504445
-------------------------------------------------------------------------------
  Stress axis :                     x             y             z
-------------------------------------------------------------------------------
  Youngs Moduli (GPa)     =      12.01188       8.48965       7.00759
-------------------------------------------------------------------------------
  Poissons Ratio (x)      =                     0.21424       0.34842
  Poissons Ratio (y)      =       0.30313                     0.48628
  Poissons Ratio (z)      =       0.59724       0.58912
-------------------------------------------------------------------------------


  Piezoelectric Strain Matrix: (Units=C/m**2)

-------------------------------------------------------------------------------
  Indices      1         2         3         4         5         6    
-------------------------------------------------------------------------------
       x     0.00000   0.00000   0.00000  -0.00000  -0.00000  -0.00000
       y     0.00000   0.00000   0.00000   0.00000  -0.00000   0.00000
       z     0.00000   0.00000  -0.00000   0.00000   0.00000  -0.00000
-------------------------------------------------------------------------------


  Piezoelectric Stress Matrix: (Units=10**-11 C/N)

-------------------------------------------------------------------------------
  Indices      1         2         3         4         5         6    
-------------------------------------------------------------------------------
       x    -0.00000   0.00000   0.00000  -0.00000  -0.00000  -0.00000
       y     0.00000  -0.00000   0.00000   0.00000  -0.00000  -0.00000
       z     0.00000   0.00000  -0.00000  -0.00000  -0.00000  -0.00000
-------------------------------------------------------------------------------


  Static dielectric constant tensor : 

-------------------------------------------------------------------------------
              x         y         z
-------------------------------------------------------------------------------
       x     1.00613  -0.00024  -0.00014
       y    -0.00024   1.00722  -0.00003
       z    -0.00014  -0.00003   1.00726
--------------------------------------------------------------------------------

  Static refractive indices : 

-------------------------------------------------------------------------------
    1 =    1.00303      2 =    1.00363      3 =    1.00363
-------------------------------------------------------------------------------


  Time to end of optimisation =     177.0831 seconds


  Peak dynamic memory used =       1.34 MB 


  Timing analysis for GULP :

--------------------------------------------------------------------------------
  Task / Subroutine                                          Time (Seconds)
--------------------------------------------------------------------------------
  Calculation of reciprocal space energy and derivatives         11.9888
  Calculation of real space energy and derivatives              159.2099
  Sum of squares for fitting                                      4.1722
  Global summation overhead                                       0.1560
--------------------------------------------------------------------------------
  Total CPU time                                                177.0831
--------------------------------------------------------------------------------


  Dump file written as sb2te3.res                                              



  **** GULP has completed with 102 warnings - beware! ****

  Job Finished at 21:53.01 21st June       2010                               

