********************************************************************************
*                       GENERAL UTILITY LATTICE PROGRAM                        *
*                                 Julian Gale                                  *
*                      Nanochemistry Research Institute                        *
*             Curtin University of Technology, Western Australia               *
********************************************************************************
* Version = 3.4.7 * Last modified =  21st July 2009                            *
********************************************************************************
*  fit          - perform fitting run                                          *
*  optimise     - perform optimisation run after fitting                       *
*  property     - calculate properties for final geometry                      *
*  fbfgs        - use full numerical Hessian in BFGS for fitting               *
********************************************************************************

  Job Started  at 13:24.38 22nd June       2010                               

  Number of CPUs =     1


  Total number of configurations input = 133

********************************************************************************
*  Input for Configuration =   1                                               *
********************************************************************************

  Formula = Sb2Te3                                                      

  Number of irreducible atoms/shells =       5


  Total number atoms/shells =       5

  Dimensionality = 3               :  Bulk   



  Cartesian lattice vectors (Angstroms) :

       -2.504286    0.000000   10.443767
        1.252143   -2.168775   10.443767
        1.252143    2.168775   10.443767

  Cell parameters (Angstroms/Degrees):

  a =      10.7398    alpha =  23.3006
  b =      10.7398    beta  =  23.3006
  c =      10.7398    gamma =  23.3006

  Initial cell volume =         170.167643 Angs**3

  Temperature of configuration =  0.000     K 

  Pressure of configuration =         0.000 GPa 

  Fractional coordinates of asymmetric unit :

--------------------------------------------------------------------------------
   No.  Atomic       x           y          z         Charge      Occupancy
        Label      (Frac)      (Frac)     (Frac)        (e)         (Frac)  
--------------------------------------------------------------------------------
      1 Sb    c    0.369021    0.369021    0.369021      0.1150    1.000000    
      2 Sb    c    0.603203    0.603203    0.603203      0.1150    1.000000    
      3 Te1   c    0.000000    0.000000    0.000000      0.1800    1.000000    
      4 Te2   c    0.784571    0.784571    0.784571     -0.2050    1.000000    
      5 Te2   c    0.215429    0.215429    0.215429     -0.2050    1.000000    
--------------------------------------------------------------------------------



********************************************************************************
*  Input for Configuration =   2                                               *
********************************************************************************

  Formula = Sb2Te3                                                      

  Number of irreducible atoms/shells =       5


  Total number atoms/shells =       5

  Dimensionality = 3               :  Bulk   



  Cartesian lattice vectors (Angstroms) :

       -2.504286    0.000000   10.443767
        1.252143   -2.168775   10.443767
        1.252143    2.168775   10.443767

  Cell parameters (Angstroms/Degrees):

  a =      10.7398    alpha =  23.3006
  b =      10.7398    beta  =  23.3006
  c =      10.7398    gamma =  23.3006

  Initial cell volume =         170.167643 Angs**3

  Temperature of configuration =  0.000     K 

  Pressure of configuration =         0.000 GPa 

  Fractional coordinates of asymmetric unit :

--------------------------------------------------------------------------------
   No.  Atomic       x           y          z         Charge      Occupancy
        Label      (Frac)      (Frac)     (Frac)        (e)         (Frac)  
--------------------------------------------------------------------------------
      1 Sb    c    0.372989    0.372989    0.372989      0.1150    1.000000    
      2 Sb    c    0.603203    0.603203    0.603203      0.1150    1.000000    
      3 Te1   c    0.000000    0.000000    0.000000      0.1800    1.000000    
      4 Te2   c    0.784571    0.784571    0.784571     -0.2050    1.000000    
      5 Te2   c    0.215429    0.215429    0.215429     -0.2050    1.000000    
--------------------------------------------------------------------------------



********************************************************************************
*  Input for Configuration =   3                                               *
********************************************************************************

  Formula = Sb2Te3                                                      

  Number of irreducible atoms/shells =       5


  Total number atoms/shells =       5

  Dimensionality = 3               :  Bulk   



  Cartesian lattice vectors (Angstroms) :

       -2.504286    0.000000   10.443767
        1.252143   -2.168775   10.443767
        1.252143    2.168775   10.443767

  Cell parameters (Angstroms/Degrees):

  a =      10.7398    alpha =  23.3006
  b =      10.7398    beta  =  23.3006
  c =      10.7398    gamma =  23.3006

  Initial cell volume =         170.167643 Angs**3

  Temperature of configuration =  0.000     K 

  Pressure of configuration =         0.000 GPa 

  Fractional coordinates of asymmetric unit :

--------------------------------------------------------------------------------
   No.  Atomic       x           y          z         Charge      Occupancy
        Label      (Frac)      (Frac)     (Frac)        (e)         (Frac)  
--------------------------------------------------------------------------------
      1 Sb    c    0.376957    0.376957    0.376957      0.1150    1.000000    
      2 Sb    c    0.603203    0.603203    0.603203      0.1150    1.000000    
      3 Te1   c    0.000000    0.000000    0.000000      0.1800    1.000000    
      4 Te2   c    0.784571    0.784571    0.784571     -0.2050    1.000000    
      5 Te2   c    0.215429    0.215429    0.215429     -0.2050    1.000000    
--------------------------------------------------------------------------------



********************************************************************************
*  Input for Configuration =   4                                               *
********************************************************************************

  Formula = Sb2Te3                                                      

  Number of irreducible atoms/shells =       5


  Total number atoms/shells =       5

  Dimensionality = 3               :  Bulk   



  Cartesian lattice vectors (Angstroms) :

       -2.504286    0.000000   10.443767
        1.252143   -2.168775   10.443767
        1.252143    2.168775   10.443767

  Cell parameters (Angstroms/Degrees):

  a =      10.7398    alpha =  23.3006
  b =      10.7398    beta  =  23.3006
  c =      10.7398    gamma =  23.3006

  Initial cell volume =         170.167643 Angs**3

  Temperature of configuration =  0.000     K 

  Pressure of configuration =         0.000 GPa 

  Fractional coordinates of asymmetric unit :

--------------------------------------------------------------------------------
   No.  Atomic       x           y          z         Charge      Occupancy
        Label      (Frac)      (Frac)     (Frac)        (e)         (Frac)  
--------------------------------------------------------------------------------
      1 Sb    c    0.380925    0.380925    0.380925      0.1150    1.000000    
      2 Sb    c    0.603203    0.603203    0.603203      0.1150    1.000000    
      3 Te1   c    0.000000    0.000000    0.000000      0.1800    1.000000    
      4 Te2   c    0.784571    0.784571    0.784571     -0.2050    1.000000    
      5 Te2   c    0.215429    0.215429    0.215429     -0.2050    1.000000    
--------------------------------------------------------------------------------



********************************************************************************
*  Input for Configuration =   5                                               *
********************************************************************************

  Formula = Sb2Te3                                                      

  Number of irreducible atoms/shells =       5


  Total number atoms/shells =       5

  Dimensionality = 3               :  Bulk   



  Cartesian lattice vectors (Angstroms) :

       -2.504286    0.000000   10.443767
        1.252143   -2.168775   10.443767
        1.252143    2.168775   10.443767

  Cell parameters (Angstroms/Degrees):

  a =      10.7398    alpha =  23.3006
  b =      10.7398    beta  =  23.3006
  c =      10.7398    gamma =  23.3006

  Initial cell volume =         170.167643 Angs**3

  Temperature of configuration =  0.000     K 

  Pressure of configuration =         0.000 GPa 

  Fractional coordinates of asymmetric unit :

--------------------------------------------------------------------------------
   No.  Atomic       x           y          z         Charge      Occupancy
        Label      (Frac)      (Frac)     (Frac)        (e)         (Frac)  
--------------------------------------------------------------------------------
      1 Sb    c    0.384893    0.384893    0.384893      0.1150    1.000000    
      2 Sb    c    0.603203    0.603203    0.603203      0.1150    1.000000    
      3 Te1   c    0.000000    0.000000    0.000000      0.1800    1.000000    
      4 Te2   c    0.784571    0.784571    0.784571     -0.2050    1.000000    
      5 Te2   c    0.215429    0.215429    0.215429     -0.2050    1.000000    
--------------------------------------------------------------------------------



********************************************************************************
*  Input for Configuration =   6                                               *
********************************************************************************

  Formula = Sb2Te3                                                      

  Number of irreducible atoms/shells =       5


  Total number atoms/shells =       5

  Dimensionality = 3               :  Bulk   



  Cartesian lattice vectors (Angstroms) :

       -2.504286    0.000000   10.443767
        1.252143   -2.168775   10.443767
        1.252143    2.168775   10.443767

  Cell parameters (Angstroms/Degrees):

  a =      10.7398    alpha =  23.3006
  b =      10.7398    beta  =  23.3006
  c =      10.7398    gamma =  23.3006

  Initial cell volume =         170.167643 Angs**3

  Temperature of configuration =  0.000     K 

  Pressure of configuration =         0.000 GPa 

  Fractional coordinates of asymmetric unit :

--------------------------------------------------------------------------------
   No.  Atomic       x           y          z         Charge      Occupancy
        Label      (Frac)      (Frac)     (Frac)        (e)         (Frac)  
--------------------------------------------------------------------------------
      1 Sb    c    0.388861    0.388861    0.388861      0.1150    1.000000    
      2 Sb    c    0.603203    0.603203    0.603203      0.1150    1.000000    
      3 Te1   c    0.000000    0.000000    0.000000      0.1800    1.000000    
      4 Te2   c    0.784571    0.784571    0.784571     -0.2050    1.000000    
      5 Te2   c    0.215429    0.215429    0.215429     -0.2050    1.000000    
--------------------------------------------------------------------------------



********************************************************************************
*  Input for Configuration =   7                                               *
********************************************************************************

  Formula = Sb2Te3                                                      

  Number of irreducible atoms/shells =       5


  Total number atoms/shells =       5

  Dimensionality = 3               :  Bulk   



  Cartesian lattice vectors (Angstroms) :

       -2.504286    0.000000   10.443767
        1.252143   -2.168775   10.443767
        1.252143    2.168775   10.443767

  Cell parameters (Angstroms/Degrees):

  a =      10.7398    alpha =  23.3006
  b =      10.7398    beta  =  23.3006
  c =      10.7398    gamma =  23.3006

  Initial cell volume =         170.167643 Angs**3

  Temperature of configuration =  0.000     K 

  Pressure of configuration =         0.000 GPa 

  Fractional coordinates of asymmetric unit :

--------------------------------------------------------------------------------
   No.  Atomic       x           y          z         Charge      Occupancy
        Label      (Frac)      (Frac)     (Frac)        (e)         (Frac)  
--------------------------------------------------------------------------------
      1 Sb    c    0.392829    0.392829    0.392829      0.1150    1.000000    
      2 Sb    c    0.603203    0.603203    0.603203      0.1150    1.000000    
      3 Te1   c    0.000000    0.000000    0.000000      0.1800    1.000000    
      4 Te2   c    0.784571    0.784571    0.784571     -0.2050    1.000000    
      5 Te2   c    0.215429    0.215429    0.215429     -0.2050    1.000000    
--------------------------------------------------------------------------------



********************************************************************************
*  Input for Configuration =   8                                               *
********************************************************************************

  Formula = Sb2Te3                                                      

  Number of irreducible atoms/shells =       5


  Total number atoms/shells =       5

  Dimensionality = 3               :  Bulk   



  Cartesian lattice vectors (Angstroms) :

       -2.504286    0.000000   10.443767
        1.252143   -2.168775   10.443767
        1.252143    2.168775   10.443767

  Cell parameters (Angstroms/Degrees):

  a =      10.7398    alpha =  23.3006
  b =      10.7398    beta  =  23.3006
  c =      10.7398    gamma =  23.3006

  Initial cell volume =         170.167643 Angs**3

  Temperature of configuration =  0.000     K 

  Pressure of configuration =         0.000 GPa 

  Fractional coordinates of asymmetric unit :

--------------------------------------------------------------------------------
   No.  Atomic       x           y          z         Charge      Occupancy
        Label      (Frac)      (Frac)     (Frac)        (e)         (Frac)  
--------------------------------------------------------------------------------
      1 Sb    c    0.396797    0.396797    0.396797      0.1150    1.000000    
      2 Sb    c    0.603203    0.603203    0.603203      0.1150    1.000000    
      3 Te1   c    0.000000    0.000000    0.000000      0.1800    1.000000    
      4 Te2   c    0.784571    0.784571    0.784571     -0.2050    1.000000    
      5 Te2   c    0.215429    0.215429    0.215429     -0.2050    1.000000    
--------------------------------------------------------------------------------



********************************************************************************
*  Input for Configuration =   9                                               *
********************************************************************************

  Formula = Sb2Te3                                                      

  Number of irreducible atoms/shells =       5


  Total number atoms/shells =       5

  Dimensionality = 3               :  Bulk   



  Cartesian lattice vectors (Angstroms) :

       -2.504286    0.000000   10.443767
        1.252143   -2.168775   10.443767
        1.252143    2.168775   10.443767

  Cell parameters (Angstroms/Degrees):

  a =      10.7398    alpha =  23.3006
  b =      10.7398    beta  =  23.3006
  c =      10.7398    gamma =  23.3006

  Initial cell volume =         170.167643 Angs**3

  Temperature of configuration =  0.000     K 

  Pressure of configuration =         0.000 GPa 

  Fractional coordinates of asymmetric unit :

--------------------------------------------------------------------------------
   No.  Atomic       x           y          z         Charge      Occupancy
        Label      (Frac)      (Frac)     (Frac)        (e)         (Frac)  
--------------------------------------------------------------------------------
      1 Sb    c    0.400765    0.400765    0.400765      0.1150    1.000000    
      2 Sb    c    0.603203    0.603203    0.603203      0.1150    1.000000    
      3 Te1   c    0.000000    0.000000    0.000000      0.1800    1.000000    
      4 Te2   c    0.784571    0.784571    0.784571     -0.2050    1.000000    
      5 Te2   c    0.215429    0.215429    0.215429     -0.2050    1.000000    
--------------------------------------------------------------------------------



********************************************************************************
*  Input for Configuration =  10                                               *
********************************************************************************

  Formula = Sb2Te3                                                      

  Number of irreducible atoms/shells =       5


  Total number atoms/shells =       5

  Dimensionality = 3               :  Bulk   



  Cartesian lattice vectors (Angstroms) :

       -2.504286    0.000000   10.443767
        1.252143   -2.168775   10.443767
        1.252143    2.168775   10.443767

  Cell parameters (Angstroms/Degrees):

  a =      10.7398    alpha =  23.3006
  b =      10.7398    beta  =  23.3006
  c =      10.7398    gamma =  23.3006

  Initial cell volume =         170.167643 Angs**3

  Temperature of configuration =  0.000     K 

  Pressure of configuration =         0.000 GPa 

  Fractional coordinates of asymmetric unit :

--------------------------------------------------------------------------------
   No.  Atomic       x           y          z         Charge      Occupancy
        Label      (Frac)      (Frac)     (Frac)        (e)         (Frac)  
--------------------------------------------------------------------------------
      1 Sb    c    0.404733    0.404733    0.404733      0.1150    1.000000    
      2 Sb    c    0.603203    0.603203    0.603203      0.1150    1.000000    
      3 Te1   c    0.000000    0.000000    0.000000      0.1800    1.000000    
      4 Te2   c    0.784571    0.784571    0.784571     -0.2050    1.000000    
      5 Te2   c    0.215429    0.215429    0.215429     -0.2050    1.000000    
--------------------------------------------------------------------------------



********************************************************************************
*  Input for Configuration =  11                                               *
********************************************************************************

  Formula = Sb2Te3                                                      

  Number of irreducible atoms/shells =       5


  Total number atoms/shells =       5

  Dimensionality = 3               :  Bulk   



  Cartesian lattice vectors (Angstroms) :

       -2.504286    0.000000   10.443767
        1.252143   -2.168775   10.443767
        1.252143    2.168775   10.443767

  Cell parameters (Angstroms/Degrees):

  a =      10.7398    alpha =  23.3006
  b =      10.7398    beta  =  23.3006
  c =      10.7398    gamma =  23.3006

  Initial cell volume =         170.167643 Angs**3

  Temperature of configuration =  0.000     K 

  Pressure of configuration =         0.000 GPa 

  Fractional coordinates of asymmetric unit :

--------------------------------------------------------------------------------
   No.  Atomic       x           y          z         Charge      Occupancy
        Label      (Frac)      (Frac)     (Frac)        (e)         (Frac)  
--------------------------------------------------------------------------------
      1 Sb    c    0.408700    0.408700    0.408700      0.1150    1.000000    
      2 Sb    c    0.603203    0.603203    0.603203      0.1150    1.000000    
      3 Te1   c    0.000000    0.000000    0.000000      0.1800    1.000000    
      4 Te2   c    0.784571    0.784571    0.784571     -0.2050    1.000000    
      5 Te2   c    0.215429    0.215429    0.215429     -0.2050    1.000000    
--------------------------------------------------------------------------------



********************************************************************************
*  Input for Configuration =  12                                               *
********************************************************************************

  Formula = Sb2Te3                                                      

  Number of irreducible atoms/shells =       5


  Total number atoms/shells =       5

  Dimensionality = 3               :  Bulk   



  Cartesian lattice vectors (Angstroms) :

       -2.504286    0.000000   10.443767
        1.252143   -2.168775   10.443767
        1.252143    2.168775   10.443767

  Cell parameters (Angstroms/Degrees):

  a =      10.7398    alpha =  23.3006
  b =      10.7398    beta  =  23.3006
  c =      10.7398    gamma =  23.3006

  Initial cell volume =         170.167643 Angs**3

  Temperature of configuration =  0.000     K 

  Pressure of configuration =         0.000 GPa 

  Fractional coordinates of asymmetric unit :

--------------------------------------------------------------------------------
   No.  Atomic       x           y          z         Charge      Occupancy
        Label      (Frac)      (Frac)     (Frac)        (e)         (Frac)  
--------------------------------------------------------------------------------
      1 Sb    c    0.412668    0.412668    0.412668      0.1150    1.000000    
      2 Sb    c    0.603203    0.603203    0.603203      0.1150    1.000000    
      3 Te1   c    0.000000    0.000000    0.000000      0.1800    1.000000    
      4 Te2   c    0.784571    0.784571    0.784571     -0.2050    1.000000    
      5 Te2   c    0.215429    0.215429    0.215429     -0.2050    1.000000    
--------------------------------------------------------------------------------



********************************************************************************
*  Input for Configuration =  13                                               *
********************************************************************************

  Formula = Sb2Te3                                                      

  Number of irreducible atoms/shells =       5


  Total number atoms/shells =       5

  Dimensionality = 3               :  Bulk   



  Cartesian lattice vectors (Angstroms) :

       -2.504286    0.000000   10.443767
        1.252143   -2.168775   10.443767
        1.252143    2.168775   10.443767

  Cell parameters (Angstroms/Degrees):

  a =      10.7398    alpha =  23.3006
  b =      10.7398    beta  =  23.3006
  c =      10.7398    gamma =  23.3006

  Initial cell volume =         170.167643 Angs**3

  Temperature of configuration =  0.000     K 

  Pressure of configuration =         0.000 GPa 

  Fractional coordinates of asymmetric unit :

--------------------------------------------------------------------------------
   No.  Atomic       x           y          z         Charge      Occupancy
        Label      (Frac)      (Frac)     (Frac)        (e)         (Frac)  
--------------------------------------------------------------------------------
      1 Sb    c    0.416636    0.416636    0.416636      0.1150    1.000000    
      2 Sb    c    0.603203    0.603203    0.603203      0.1150    1.000000    
      3 Te1   c    0.000000    0.000000    0.000000      0.1800    1.000000    
      4 Te2   c    0.784571    0.784571    0.784571     -0.2050    1.000000    
      5 Te2   c    0.215429    0.215429    0.215429     -0.2050    1.000000    
--------------------------------------------------------------------------------



********************************************************************************
*  Input for Configuration =  14                                               *
********************************************************************************

  Formula = Sb2Te3                                                      

  Number of irreducible atoms/shells =       5


  Total number atoms/shells =       5

  Dimensionality = 3               :  Bulk   



  Cartesian lattice vectors (Angstroms) :

       -2.504286    0.000000   10.443767
        1.252143   -2.168775   10.443767
        1.252143    2.168775   10.443767

  Cell parameters (Angstroms/Degrees):

  a =      10.7398    alpha =  23.3006
  b =      10.7398    beta  =  23.3006
  c =      10.7398    gamma =  23.3006

  Initial cell volume =         170.167643 Angs**3

  Temperature of configuration =  0.000     K 

  Pressure of configuration =         0.000 GPa 

  Fractional coordinates of asymmetric unit :

--------------------------------------------------------------------------------
   No.  Atomic       x           y          z         Charge      Occupancy
        Label      (Frac)      (Frac)     (Frac)        (e)         (Frac)  
--------------------------------------------------------------------------------
      1 Sb    c    0.420604    0.420604    0.420604      0.1150    1.000000    
      2 Sb    c    0.603203    0.603203    0.603203      0.1150    1.000000    
      3 Te1   c    0.000000    0.000000    0.000000      0.1800    1.000000    
      4 Te2   c    0.784571    0.784571    0.784571     -0.2050    1.000000    
      5 Te2   c    0.215429    0.215429    0.215429     -0.2050    1.000000    
--------------------------------------------------------------------------------



********************************************************************************
*  Input for Configuration =  15                                               *
********************************************************************************

  Formula = Sb2Te3                                                      

  Number of irreducible atoms/shells =       5


  Total number atoms/shells =       5

  Dimensionality = 3               :  Bulk   



  Cartesian lattice vectors (Angstroms) :

       -2.504286    0.000000   10.443767
        1.252143   -2.168775   10.443767
        1.252143    2.168775   10.443767

  Cell parameters (Angstroms/Degrees):

  a =      10.7398    alpha =  23.3006
  b =      10.7398    beta  =  23.3006
  c =      10.7398    gamma =  23.3006

  Initial cell volume =         170.167643 Angs**3

  Temperature of configuration =  0.000     K 

  Pressure of configuration =         0.000 GPa 

  Fractional coordinates of asymmetric unit :

--------------------------------------------------------------------------------
   No.  Atomic       x           y          z         Charge      Occupancy
        Label      (Frac)      (Frac)     (Frac)        (e)         (Frac)  
--------------------------------------------------------------------------------
      1 Sb    c    0.424572    0.424572    0.424572      0.1150    1.000000    
      2 Sb    c    0.603203    0.603203    0.603203      0.1150    1.000000    
      3 Te1   c    0.000000    0.000000    0.000000      0.1800    1.000000    
      4 Te2   c    0.784571    0.784571    0.784571     -0.2050    1.000000    
      5 Te2   c    0.215429    0.215429    0.215429     -0.2050    1.000000    
--------------------------------------------------------------------------------



********************************************************************************
*  Input for Configuration =  16                                               *
********************************************************************************

  Formula = Sb2Te3                                                      

  Number of irreducible atoms/shells =       5


  Total number atoms/shells =       5

  Dimensionality = 3               :  Bulk   



  Cartesian lattice vectors (Angstroms) :

       -2.504286    0.000000   10.443767
        1.252143   -2.168775   10.443767
        1.252143    2.168775   10.443767

  Cell parameters (Angstroms/Degrees):

  a =      10.7398    alpha =  23.3006
  b =      10.7398    beta  =  23.3006
  c =      10.7398    gamma =  23.3006

  Initial cell volume =         170.167643 Angs**3

  Temperature of configuration =  0.000     K 

  Pressure of configuration =         0.000 GPa 

  Fractional coordinates of asymmetric unit :

--------------------------------------------------------------------------------
   No.  Atomic       x           y          z         Charge      Occupancy
        Label      (Frac)      (Frac)     (Frac)        (e)         (Frac)  
--------------------------------------------------------------------------------
      1 Sb    c    0.396797    0.396797    0.396797      0.1150    1.000000    
      2 Sb    c    0.560979    0.560979    0.560979      0.1150    1.000000    
      3 Te1   c    0.000000    0.000000    0.000000      0.1800    1.000000    
      4 Te2   c    0.784571    0.784571    0.784571     -0.2050    1.000000    
      5 Te2   c    0.215429    0.215429    0.215429     -0.2050    1.000000    
--------------------------------------------------------------------------------



********************************************************************************
*  Input for Configuration =  17                                               *
********************************************************************************

  Formula = Sb2Te3                                                      

  Number of irreducible atoms/shells =       5


  Total number atoms/shells =       5

  Dimensionality = 3               :  Bulk   



  Cartesian lattice vectors (Angstroms) :

       -2.504286    0.000000   10.443767
        1.252143   -2.168775   10.443767
        1.252143    2.168775   10.443767

  Cell parameters (Angstroms/Degrees):

  a =      10.7398    alpha =  23.3006
  b =      10.7398    beta  =  23.3006
  c =      10.7398    gamma =  23.3006

  Initial cell volume =         170.167643 Angs**3

  Temperature of configuration =  0.000     K 

  Pressure of configuration =         0.000 GPa 

  Fractional coordinates of asymmetric unit :

--------------------------------------------------------------------------------
   No.  Atomic       x           y          z         Charge      Occupancy
        Label      (Frac)      (Frac)     (Frac)        (e)         (Frac)  
--------------------------------------------------------------------------------
      1 Sb    c    0.396797    0.396797    0.396797      0.1150    1.000000    
      2 Sb    c    0.567011    0.567011    0.567011      0.1150    1.000000    
      3 Te1   c    0.000000    0.000000    0.000000      0.1800    1.000000    
      4 Te2   c    0.784571    0.784571    0.784571     -0.2050    1.000000    
      5 Te2   c    0.215429    0.215429    0.215429     -0.2050    1.000000    
--------------------------------------------------------------------------------



********************************************************************************
*  Input for Configuration =  18                                               *
********************************************************************************

  Formula = Sb2Te3                                                      

  Number of irreducible atoms/shells =       5


  Total number atoms/shells =       5

  Dimensionality = 3               :  Bulk   



  Cartesian lattice vectors (Angstroms) :

       -2.504286    0.000000   10.443767
        1.252143   -2.168775   10.443767
        1.252143    2.168775   10.443767

  Cell parameters (Angstroms/Degrees):

  a =      10.7398    alpha =  23.3006
  b =      10.7398    beta  =  23.3006
  c =      10.7398    gamma =  23.3006

  Initial cell volume =         170.167643 Angs**3

  Temperature of configuration =  0.000     K 

  Pressure of configuration =         0.000 GPa 

  Fractional coordinates of asymmetric unit :

--------------------------------------------------------------------------------
   No.  Atomic       x           y          z         Charge      Occupancy
        Label      (Frac)      (Frac)     (Frac)        (e)         (Frac)  
--------------------------------------------------------------------------------
      1 Sb    c    0.396797    0.396797    0.396797      0.1150    1.000000    
      2 Sb    c    0.573043    0.573043    0.573043      0.1150    1.000000    
      3 Te1   c    0.000000    0.000000    0.000000      0.1800    1.000000    
      4 Te2   c    0.784571    0.784571    0.784571     -0.2050    1.000000    
      5 Te2   c    0.215429    0.215429    0.215429     -0.2050    1.000000    
--------------------------------------------------------------------------------



********************************************************************************
*  Input for Configuration =  19                                               *
********************************************************************************

  Formula = Sb2Te3                                                      

  Number of irreducible atoms/shells =       5


  Total number atoms/shells =       5

  Dimensionality = 3               :  Bulk   



  Cartesian lattice vectors (Angstroms) :

       -2.504286    0.000000   10.443767
        1.252143   -2.168775   10.443767
        1.252143    2.168775   10.443767

  Cell parameters (Angstroms/Degrees):

  a =      10.7398    alpha =  23.3006
  b =      10.7398    beta  =  23.3006
  c =      10.7398    gamma =  23.3006

  Initial cell volume =         170.167643 Angs**3

  Temperature of configuration =  0.000     K 

  Pressure of configuration =         0.000 GPa 

  Fractional coordinates of asymmetric unit :

--------------------------------------------------------------------------------
   No.  Atomic       x           y          z         Charge      Occupancy
        Label      (Frac)      (Frac)     (Frac)        (e)         (Frac)  
--------------------------------------------------------------------------------
      1 Sb    c    0.396797    0.396797    0.396797      0.1150    1.000000    
      2 Sb    c    0.579075    0.579075    0.579075      0.1150    1.000000    
      3 Te1   c    0.000000    0.000000    0.000000      0.1800    1.000000    
      4 Te2   c    0.784571    0.784571    0.784571     -0.2050    1.000000    
      5 Te2   c    0.215429    0.215429    0.215429     -0.2050    1.000000    
--------------------------------------------------------------------------------



********************************************************************************
*  Input for Configuration =  20                                               *
********************************************************************************

  Formula = Sb2Te3                                                      

  Number of irreducible atoms/shells =       5


  Total number atoms/shells =       5

  Dimensionality = 3               :  Bulk   



  Cartesian lattice vectors (Angstroms) :

       -2.504286    0.000000   10.443767
        1.252143   -2.168775   10.443767
        1.252143    2.168775   10.443767

  Cell parameters (Angstroms/Degrees):

  a =      10.7398    alpha =  23.3006
  b =      10.7398    beta  =  23.3006
  c =      10.7398    gamma =  23.3006

  Initial cell volume =         170.167643 Angs**3

  Temperature of configuration =  0.000     K 

  Pressure of configuration =         0.000 GPa 

  Fractional coordinates of asymmetric unit :

--------------------------------------------------------------------------------
   No.  Atomic       x           y          z         Charge      Occupancy
        Label      (Frac)      (Frac)     (Frac)        (e)         (Frac)  
--------------------------------------------------------------------------------
      1 Sb    c    0.396797    0.396797    0.396797      0.1150    1.000000    
      2 Sb    c    0.585107    0.585107    0.585107      0.1150    1.000000    
      3 Te1   c    0.000000    0.000000    0.000000      0.1800    1.000000    
      4 Te2   c    0.784571    0.784571    0.784571     -0.2050    1.000000    
      5 Te2   c    0.215429    0.215429    0.215429     -0.2050    1.000000    
--------------------------------------------------------------------------------



********************************************************************************
*  Input for Configuration =  21                                               *
********************************************************************************

  Formula = Sb2Te3                                                      

  Number of irreducible atoms/shells =       5


  Total number atoms/shells =       5

  Dimensionality = 3               :  Bulk   



  Cartesian lattice vectors (Angstroms) :

       -2.504286    0.000000   10.443767
        1.252143   -2.168775   10.443767
        1.252143    2.168775   10.443767

  Cell parameters (Angstroms/Degrees):

  a =      10.7398    alpha =  23.3006
  b =      10.7398    beta  =  23.3006
  c =      10.7398    gamma =  23.3006

  Initial cell volume =         170.167643 Angs**3

  Temperature of configuration =  0.000     K 

  Pressure of configuration =         0.000 GPa 

  Fractional coordinates of asymmetric unit :

--------------------------------------------------------------------------------
   No.  Atomic       x           y          z         Charge      Occupancy
        Label      (Frac)      (Frac)     (Frac)        (e)         (Frac)  
--------------------------------------------------------------------------------
      1 Sb    c    0.396797    0.396797    0.396797      0.1150    1.000000    
      2 Sb    c    0.591139    0.591139    0.591139      0.1150    1.000000    
      3 Te1   c    0.000000    0.000000    0.000000      0.1800    1.000000    
      4 Te2   c    0.784571    0.784571    0.784571     -0.2050    1.000000    
      5 Te2   c    0.215429    0.215429    0.215429     -0.2050    1.000000    
--------------------------------------------------------------------------------



********************************************************************************
*  Input for Configuration =  22                                               *
********************************************************************************

  Formula = Sb2Te3                                                      

  Number of irreducible atoms/shells =       5


  Total number atoms/shells =       5

  Dimensionality = 3               :  Bulk   



  Cartesian lattice vectors (Angstroms) :

       -2.504286    0.000000   10.443767
        1.252143   -2.168775   10.443767
        1.252143    2.168775   10.443767

  Cell parameters (Angstroms/Degrees):

  a =      10.7398    alpha =  23.3006
  b =      10.7398    beta  =  23.3006
  c =      10.7398    gamma =  23.3006

  Initial cell volume =         170.167643 Angs**3

  Temperature of configuration =  0.000     K 

  Pressure of configuration =         0.000 GPa 

  Fractional coordinates of asymmetric unit :

--------------------------------------------------------------------------------
   No.  Atomic       x           y          z         Charge      Occupancy
        Label      (Frac)      (Frac)     (Frac)        (e)         (Frac)  
--------------------------------------------------------------------------------
      1 Sb    c    0.396797    0.396797    0.396797      0.1150    1.000000    
      2 Sb    c    0.597171    0.597171    0.597171      0.1150    1.000000    
      3 Te1   c    0.000000    0.000000    0.000000      0.1800    1.000000    
      4 Te2   c    0.784571    0.784571    0.784571     -0.2050    1.000000    
      5 Te2   c    0.215429    0.215429    0.215429     -0.2050    1.000000    
--------------------------------------------------------------------------------



********************************************************************************
*  Input for Configuration =  23                                               *
********************************************************************************

  Formula = Sb2Te3                                                      

  Number of irreducible atoms/shells =       5


  Total number atoms/shells =       5

  Dimensionality = 3               :  Bulk   



  Cartesian lattice vectors (Angstroms) :

       -2.504286    0.000000   10.443767
        1.252143   -2.168775   10.443767
        1.252143    2.168775   10.443767

  Cell parameters (Angstroms/Degrees):

  a =      10.7398    alpha =  23.3006
  b =      10.7398    beta  =  23.3006
  c =      10.7398    gamma =  23.3006

  Initial cell volume =         170.167643 Angs**3

  Temperature of configuration =  0.000     K 

  Pressure of configuration =         0.000 GPa 

  Fractional coordinates of asymmetric unit :

--------------------------------------------------------------------------------
   No.  Atomic       x           y          z         Charge      Occupancy
        Label      (Frac)      (Frac)     (Frac)        (e)         (Frac)  
--------------------------------------------------------------------------------
      1 Sb    c    0.396797    0.396797    0.396797      0.1150    1.000000    
      2 Sb    c    0.603203    0.603203    0.603203      0.1150    1.000000    
      3 Te1   c    0.000000    0.000000    0.000000      0.1800    1.000000    
      4 Te2   c    0.784571    0.784571    0.784571     -0.2050    1.000000    
      5 Te2   c    0.215429    0.215429    0.215429     -0.2050    1.000000    
--------------------------------------------------------------------------------



********************************************************************************
*  Input for Configuration =  24                                               *
********************************************************************************

  Formula = Sb2Te3                                                      

  Number of irreducible atoms/shells =       5


  Total number atoms/shells =       5

  Dimensionality = 3               :  Bulk   



  Cartesian lattice vectors (Angstroms) :

       -2.504286    0.000000   10.443767
        1.252143   -2.168775   10.443767
        1.252143    2.168775   10.443767

  Cell parameters (Angstroms/Degrees):

  a =      10.7398    alpha =  23.3006
  b =      10.7398    beta  =  23.3006
  c =      10.7398    gamma =  23.3006

  Initial cell volume =         170.167643 Angs**3

  Temperature of configuration =  0.000     K 

  Pressure of configuration =         0.000 GPa 

  Fractional coordinates of asymmetric unit :

--------------------------------------------------------------------------------
   No.  Atomic       x           y          z         Charge      Occupancy
        Label      (Frac)      (Frac)     (Frac)        (e)         (Frac)  
--------------------------------------------------------------------------------
      1 Sb    c    0.396797    0.396797    0.396797      0.1150    1.000000    
      2 Sb    c    0.609235    0.609235    0.609235      0.1150    1.000000    
      3 Te1   c    0.000000    0.000000    0.000000      0.1800    1.000000    
      4 Te2   c    0.784571    0.784571    0.784571     -0.2050    1.000000    
      5 Te2   c    0.215429    0.215429    0.215429     -0.2050    1.000000    
--------------------------------------------------------------------------------



********************************************************************************
*  Input for Configuration =  25                                               *
********************************************************************************

  Formula = Sb2Te3                                                      

  Number of irreducible atoms/shells =       5


  Total number atoms/shells =       5

  Dimensionality = 3               :  Bulk   



  Cartesian lattice vectors (Angstroms) :

       -2.504286    0.000000   10.443767
        1.252143   -2.168775   10.443767
        1.252143    2.168775   10.443767

  Cell parameters (Angstroms/Degrees):

  a =      10.7398    alpha =  23.3006
  b =      10.7398    beta  =  23.3006
  c =      10.7398    gamma =  23.3006

  Initial cell volume =         170.167643 Angs**3

  Temperature of configuration =  0.000     K 

  Pressure of configuration =         0.000 GPa 

  Fractional coordinates of asymmetric unit :

--------------------------------------------------------------------------------
   No.  Atomic       x           y          z         Charge      Occupancy
        Label      (Frac)      (Frac)     (Frac)        (e)         (Frac)  
--------------------------------------------------------------------------------
      1 Sb    c    0.396797    0.396797    0.396797      0.1150    1.000000    
      2 Sb    c    0.615267    0.615267    0.615267      0.1150    1.000000    
      3 Te1   c    0.000000    0.000000    0.000000      0.1800    1.000000    
      4 Te2   c    0.784571    0.784571    0.784571     -0.2050    1.000000    
      5 Te2   c    0.215429    0.215429    0.215429     -0.2050    1.000000    
--------------------------------------------------------------------------------



********************************************************************************
*  Input for Configuration =  26                                               *
********************************************************************************

  Formula = Sb2Te3                                                      

  Number of irreducible atoms/shells =       5


  Total number atoms/shells =       5

  Dimensionality = 3               :  Bulk   



  Cartesian lattice vectors (Angstroms) :

       -2.504286    0.000000   10.443767
        1.252143   -2.168775   10.443767
        1.252143    2.168775   10.443767

  Cell parameters (Angstroms/Degrees):

  a =      10.7398    alpha =  23.3006
  b =      10.7398    beta  =  23.3006
  c =      10.7398    gamma =  23.3006

  Initial cell volume =         170.167643 Angs**3

  Temperature of configuration =  0.000     K 

  Pressure of configuration =         0.000 GPa 

  Fractional coordinates of asymmetric unit :

--------------------------------------------------------------------------------
   No.  Atomic       x           y          z         Charge      Occupancy
        Label      (Frac)      (Frac)     (Frac)        (e)         (Frac)  
--------------------------------------------------------------------------------
      1 Sb    c    0.396797    0.396797    0.396797      0.1150    1.000000    
      2 Sb    c    0.621300    0.621300    0.621300      0.1150    1.000000    
      3 Te1   c    0.000000    0.000000    0.000000      0.1800    1.000000    
      4 Te2   c    0.784571    0.784571    0.784571     -0.2050    1.000000    
      5 Te2   c    0.215429    0.215429    0.215429     -0.2050    1.000000    
--------------------------------------------------------------------------------



********************************************************************************
*  Input for Configuration =  27                                               *
********************************************************************************

  Formula = Sb2Te3                                                      

  Number of irreducible atoms/shells =       5


  Total number atoms/shells =       5

  Dimensionality = 3               :  Bulk   



  Cartesian lattice vectors (Angstroms) :

       -2.504286    0.000000   10.443767
        1.252143   -2.168775   10.443767
        1.252143    2.168775   10.443767

  Cell parameters (Angstroms/Degrees):

  a =      10.7398    alpha =  23.3006
  b =      10.7398    beta  =  23.3006
  c =      10.7398    gamma =  23.3006

  Initial cell volume =         170.167643 Angs**3

  Temperature of configuration =  0.000     K 

  Pressure of configuration =         0.000 GPa 

  Fractional coordinates of asymmetric unit :

--------------------------------------------------------------------------------
   No.  Atomic       x           y          z         Charge      Occupancy
        Label      (Frac)      (Frac)     (Frac)        (e)         (Frac)  
--------------------------------------------------------------------------------
      1 Sb    c    0.396797    0.396797    0.396797      0.1150    1.000000    
      2 Sb    c    0.627332    0.627332    0.627332      0.1150    1.000000    
      3 Te1   c    0.000000    0.000000    0.000000      0.1800    1.000000    
      4 Te2   c    0.784571    0.784571    0.784571     -0.2050    1.000000    
      5 Te2   c    0.215429    0.215429    0.215429     -0.2050    1.000000    
--------------------------------------------------------------------------------



********************************************************************************
*  Input for Configuration =  28                                               *
********************************************************************************

  Formula = Sb2Te3                                                      

  Number of irreducible atoms/shells =       5


  Total number atoms/shells =       5

  Dimensionality = 3               :  Bulk   



  Cartesian lattice vectors (Angstroms) :

       -2.504286    0.000000   10.443767
        1.252143   -2.168775   10.443767
        1.252143    2.168775   10.443767

  Cell parameters (Angstroms/Degrees):

  a =      10.7398    alpha =  23.3006
  b =      10.7398    beta  =  23.3006
  c =      10.7398    gamma =  23.3006

  Initial cell volume =         170.167643 Angs**3

  Temperature of configuration =  0.000     K 

  Pressure of configuration =         0.000 GPa 

  Fractional coordinates of asymmetric unit :

--------------------------------------------------------------------------------
   No.  Atomic       x           y          z         Charge      Occupancy
        Label      (Frac)      (Frac)     (Frac)        (e)         (Frac)  
--------------------------------------------------------------------------------
      1 Sb    c    0.396797    0.396797    0.396797      0.1150    1.000000    
      2 Sb    c    0.633364    0.633364    0.633364      0.1150    1.000000    
      3 Te1   c    0.000000    0.000000    0.000000      0.1800    1.000000    
      4 Te2   c    0.784571    0.784571    0.784571     -0.2050    1.000000    
      5 Te2   c    0.215429    0.215429    0.215429     -0.2050    1.000000    
--------------------------------------------------------------------------------



********************************************************************************
*  Input for Configuration =  29                                               *
********************************************************************************

  Formula = Sb2Te3                                                      

  Number of irreducible atoms/shells =       5


  Total number atoms/shells =       5

  Dimensionality = 3               :  Bulk   



  Cartesian lattice vectors (Angstroms) :

       -2.504286    0.000000   10.443767
        1.252143   -2.168775   10.443767
        1.252143    2.168775   10.443767

  Cell parameters (Angstroms/Degrees):

  a =      10.7398    alpha =  23.3006
  b =      10.7398    beta  =  23.3006
  c =      10.7398    gamma =  23.3006

  Initial cell volume =         170.167643 Angs**3

  Temperature of configuration =  0.000     K 

  Pressure of configuration =         0.000 GPa 

  Fractional coordinates of asymmetric unit :

--------------------------------------------------------------------------------
   No.  Atomic       x           y          z         Charge      Occupancy
        Label      (Frac)      (Frac)     (Frac)        (e)         (Frac)  
--------------------------------------------------------------------------------
      1 Sb    c    0.396797    0.396797    0.396797      0.1150    1.000000    
      2 Sb    c    0.639396    0.639396    0.639396      0.1150    1.000000    
      3 Te1   c    0.000000    0.000000    0.000000      0.1800    1.000000    
      4 Te2   c    0.784571    0.784571    0.784571     -0.2050    1.000000    
      5 Te2   c    0.215429    0.215429    0.215429     -0.2050    1.000000    
--------------------------------------------------------------------------------



********************************************************************************
*  Input for Configuration =  30                                               *
********************************************************************************

  Formula = Sb2Te3                                                      

  Number of irreducible atoms/shells =       5


  Total number atoms/shells =       5

  Dimensionality = 3               :  Bulk   



  Cartesian lattice vectors (Angstroms) :

       -2.504286    0.000000   10.443767
        1.252143   -2.168775   10.443767
        1.252143    2.168775   10.443767

  Cell parameters (Angstroms/Degrees):

  a =      10.7398    alpha =  23.3006
  b =      10.7398    beta  =  23.3006
  c =      10.7398    gamma =  23.3006

  Initial cell volume =         170.167643 Angs**3

  Temperature of configuration =  0.000     K 

  Pressure of configuration =         0.000 GPa 

  Fractional coordinates of asymmetric unit :

--------------------------------------------------------------------------------
   No.  Atomic       x           y          z         Charge      Occupancy
        Label      (Frac)      (Frac)     (Frac)        (e)         (Frac)  
--------------------------------------------------------------------------------
      1 Sb    c    0.396797    0.396797    0.396797      0.1150    1.000000    
      2 Sb    c    0.645428    0.645428    0.645428      0.1150    1.000000    
      3 Te1   c    0.000000    0.000000    0.000000      0.1800    1.000000    
      4 Te2   c    0.784571    0.784571    0.784571     -0.2050    1.000000    
      5 Te2   c    0.215429    0.215429    0.215429     -0.2050    1.000000    
--------------------------------------------------------------------------------



********************************************************************************
*  Input for Configuration =  31                                               *
********************************************************************************

  Formula = Sb2Te3                                                      

  Number of irreducible atoms/shells =       5


  Total number atoms/shells =       5

  Dimensionality = 3               :  Bulk   



  Cartesian lattice vectors (Angstroms) :

       -2.504286    0.000000   10.443767
        1.252143   -2.168775   10.443767
        1.252143    2.168775   10.443767

  Cell parameters (Angstroms/Degrees):

  a =      10.7398    alpha =  23.3006
  b =      10.7398    beta  =  23.3006
  c =      10.7398    gamma =  23.3006

  Initial cell volume =         170.167643 Angs**3

  Temperature of configuration =  0.000     K 

  Pressure of configuration =         0.000 GPa 

  Fractional coordinates of asymmetric unit :

--------------------------------------------------------------------------------
   No.  Atomic       x           y          z         Charge      Occupancy
        Label      (Frac)      (Frac)     (Frac)        (e)         (Frac)  
--------------------------------------------------------------------------------
      1 Sb    c    0.396797    0.396797    0.396797      0.1150    1.000000    
      2 Sb    c    0.603203    0.603203    0.603203      0.1150    1.000000    
      3 Te1   c    0.930000    0.930000    0.930000      0.1800    1.000000    
      4 Te2   c    0.784571    0.784571    0.784571     -0.2050    1.000000    
      5 Te2   c    0.215429    0.215429    0.215429     -0.2050    1.000000    
--------------------------------------------------------------------------------



********************************************************************************
*  Input for Configuration =  32                                               *
********************************************************************************

  Formula = Sb2Te3                                                      

  Number of irreducible atoms/shells =       5


  Total number atoms/shells =       5

  Dimensionality = 3               :  Bulk   



  Cartesian lattice vectors (Angstroms) :

       -2.504286    0.000000   10.443767
        1.252143   -2.168775   10.443767
        1.252143    2.168775   10.443767

  Cell parameters (Angstroms/Degrees):

  a =      10.7398    alpha =  23.3006
  b =      10.7398    beta  =  23.3006
  c =      10.7398    gamma =  23.3006

  Initial cell volume =         170.167643 Angs**3

  Temperature of configuration =  0.000     K 

  Pressure of configuration =         0.000 GPa 

  Fractional coordinates of asymmetric unit :

--------------------------------------------------------------------------------
   No.  Atomic       x           y          z         Charge      Occupancy
        Label      (Frac)      (Frac)     (Frac)        (e)         (Frac)  
--------------------------------------------------------------------------------
      1 Sb    c    0.396797    0.396797    0.396797      0.1150    1.000000    
      2 Sb    c    0.603203    0.603203    0.603203      0.1150    1.000000    
      3 Te1   c    0.940000    0.940000    0.940000      0.1800    1.000000    
      4 Te2   c    0.784571    0.784571    0.784571     -0.2050    1.000000    
      5 Te2   c    0.215429    0.215429    0.215429     -0.2050    1.000000    
--------------------------------------------------------------------------------



********************************************************************************
*  Input for Configuration =  33                                               *
********************************************************************************

  Formula = Sb2Te3                                                      

  Number of irreducible atoms/shells =       5


  Total number atoms/shells =       5

  Dimensionality = 3               :  Bulk   



  Cartesian lattice vectors (Angstroms) :

       -2.504286    0.000000   10.443767
        1.252143   -2.168775   10.443767
        1.252143    2.168775   10.443767

  Cell parameters (Angstroms/Degrees):

  a =      10.7398    alpha =  23.3006
  b =      10.7398    beta  =  23.3006
  c =      10.7398    gamma =  23.3006

  Initial cell volume =         170.167643 Angs**3

  Temperature of configuration =  0.000     K 

  Pressure of configuration =         0.000 GPa 

  Fractional coordinates of asymmetric unit :

--------------------------------------------------------------------------------
   No.  Atomic       x           y          z         Charge      Occupancy
        Label      (Frac)      (Frac)     (Frac)        (e)         (Frac)  
--------------------------------------------------------------------------------
      1 Sb    c    0.396797    0.396797    0.396797      0.1150    1.000000    
      2 Sb    c    0.603203    0.603203    0.603203      0.1150    1.000000    
      3 Te1   c    0.950000    0.950000    0.950000      0.1800    1.000000    
      4 Te2   c    0.784571    0.784571    0.784571     -0.2050    1.000000    
      5 Te2   c    0.215429    0.215429    0.215429     -0.2050    1.000000    
--------------------------------------------------------------------------------



********************************************************************************
*  Input for Configuration =  34                                               *
********************************************************************************

  Formula = Sb2Te3                                                      

  Number of irreducible atoms/shells =       5


  Total number atoms/shells =       5

  Dimensionality = 3               :  Bulk   



  Cartesian lattice vectors (Angstroms) :

       -2.504286    0.000000   10.443767
        1.252143   -2.168775   10.443767
        1.252143    2.168775   10.443767

  Cell parameters (Angstroms/Degrees):

  a =      10.7398    alpha =  23.3006
  b =      10.7398    beta  =  23.3006
  c =      10.7398    gamma =  23.3006

  Initial cell volume =         170.167643 Angs**3

  Temperature of configuration =  0.000     K 

  Pressure of configuration =         0.000 GPa 

  Fractional coordinates of asymmetric unit :

--------------------------------------------------------------------------------
   No.  Atomic       x           y          z         Charge      Occupancy
        Label      (Frac)      (Frac)     (Frac)        (e)         (Frac)  
--------------------------------------------------------------------------------
      1 Sb    c    0.396797    0.396797    0.396797      0.1150    1.000000    
      2 Sb    c    0.603203    0.603203    0.603203      0.1150    1.000000    
      3 Te1   c    0.960000    0.960000    0.960000      0.1800    1.000000    
      4 Te2   c    0.784571    0.784571    0.784571     -0.2050    1.000000    
      5 Te2   c    0.215429    0.215429    0.215429     -0.2050    1.000000    
--------------------------------------------------------------------------------



********************************************************************************
*  Input for Configuration =  35                                               *
********************************************************************************

  Formula = Sb2Te3                                                      

  Number of irreducible atoms/shells =       5


  Total number atoms/shells =       5

  Dimensionality = 3               :  Bulk   



  Cartesian lattice vectors (Angstroms) :

       -2.504286    0.000000   10.443767
        1.252143   -2.168775   10.443767
        1.252143    2.168775   10.443767

  Cell parameters (Angstroms/Degrees):

  a =      10.7398    alpha =  23.3006
  b =      10.7398    beta  =  23.3006
  c =      10.7398    gamma =  23.3006

  Initial cell volume =         170.167643 Angs**3

  Temperature of configuration =  0.000     K 

  Pressure of configuration =         0.000 GPa 

  Fractional coordinates of asymmetric unit :

--------------------------------------------------------------------------------
   No.  Atomic       x           y          z         Charge      Occupancy
        Label      (Frac)      (Frac)     (Frac)        (e)         (Frac)  
--------------------------------------------------------------------------------
      1 Sb    c    0.396797    0.396797    0.396797      0.1150    1.000000    
      2 Sb    c    0.603203    0.603203    0.603203      0.1150    1.000000    
      3 Te1   c    0.970000    0.970000    0.970000      0.1800    1.000000    
      4 Te2   c    0.784571    0.784571    0.784571     -0.2050    1.000000    
      5 Te2   c    0.215429    0.215429    0.215429     -0.2050    1.000000    
--------------------------------------------------------------------------------



********************************************************************************
*  Input for Configuration =  36                                               *
********************************************************************************

  Formula = Sb2Te3                                                      

  Number of irreducible atoms/shells =       5


  Total number atoms/shells =       5

  Dimensionality = 3               :  Bulk   



  Cartesian lattice vectors (Angstroms) :

       -2.504286    0.000000   10.443767
        1.252143   -2.168775   10.443767
        1.252143    2.168775   10.443767

  Cell parameters (Angstroms/Degrees):

  a =      10.7398    alpha =  23.3006
  b =      10.7398    beta  =  23.3006
  c =      10.7398    gamma =  23.3006

  Initial cell volume =         170.167643 Angs**3

  Temperature of configuration =  0.000     K 

  Pressure of configuration =         0.000 GPa 

  Fractional coordinates of asymmetric unit :

--------------------------------------------------------------------------------
   No.  Atomic       x           y          z         Charge      Occupancy
        Label      (Frac)      (Frac)     (Frac)        (e)         (Frac)  
--------------------------------------------------------------------------------
      1 Sb    c    0.396797    0.396797    0.396797      0.1150    1.000000    
      2 Sb    c    0.603203    0.603203    0.603203      0.1150    1.000000    
      3 Te1   c    0.980000    0.980000    0.980000      0.1800    1.000000    
      4 Te2   c    0.784571    0.784571    0.784571     -0.2050    1.000000    
      5 Te2   c    0.215429    0.215429    0.215429     -0.2050    1.000000    
--------------------------------------------------------------------------------



********************************************************************************
*  Input for Configuration =  37                                               *
********************************************************************************

  Formula = Sb2Te3                                                      

  Number of irreducible atoms/shells =       5


  Total number atoms/shells =       5

  Dimensionality = 3               :  Bulk   



  Cartesian lattice vectors (Angstroms) :

       -2.504286    0.000000   10.443767
        1.252143   -2.168775   10.443767
        1.252143    2.168775   10.443767

  Cell parameters (Angstroms/Degrees):

  a =      10.7398    alpha =  23.3006
  b =      10.7398    beta  =  23.3006
  c =      10.7398    gamma =  23.3006

  Initial cell volume =         170.167643 Angs**3

  Temperature of configuration =  0.000     K 

  Pressure of configuration =         0.000 GPa 

  Fractional coordinates of asymmetric unit :

--------------------------------------------------------------------------------
   No.  Atomic       x           y          z         Charge      Occupancy
        Label      (Frac)      (Frac)     (Frac)        (e)         (Frac)  
--------------------------------------------------------------------------------
      1 Sb    c    0.396797    0.396797    0.396797      0.1150    1.000000    
      2 Sb    c    0.603203    0.603203    0.603203      0.1150    1.000000    
      3 Te1   c    0.990000    0.990000    0.990000      0.1800    1.000000    
      4 Te2   c    0.784571    0.784571    0.784571     -0.2050    1.000000    
      5 Te2   c    0.215429    0.215429    0.215429     -0.2050    1.000000    
--------------------------------------------------------------------------------



********************************************************************************
*  Input for Configuration =  38                                               *
********************************************************************************

  Formula = Sb2Te3                                                      

  Number of irreducible atoms/shells =       5


  Total number atoms/shells =       5

  Dimensionality = 3               :  Bulk   



  Cartesian lattice vectors (Angstroms) :

       -2.504286    0.000000   10.443767
        1.252143   -2.168775   10.443767
        1.252143    2.168775   10.443767

  Cell parameters (Angstroms/Degrees):

  a =      10.7398    alpha =  23.3006
  b =      10.7398    beta  =  23.3006
  c =      10.7398    gamma =  23.3006

  Initial cell volume =         170.167643 Angs**3

  Temperature of configuration =  0.000     K 

  Pressure of configuration =         0.000 GPa 

  Fractional coordinates of asymmetric unit :

--------------------------------------------------------------------------------
   No.  Atomic       x           y          z         Charge      Occupancy
        Label      (Frac)      (Frac)     (Frac)        (e)         (Frac)  
--------------------------------------------------------------------------------
      1 Sb    c    0.396797    0.396797    0.396797      0.1150    1.000000    
      2 Sb    c    0.603203    0.603203    0.603203      0.1150    1.000000    
      3 Te1   c    0.000000    0.000000    0.000000      0.1800    1.000000    
      4 Te2   c    0.784571    0.784571    0.784571     -0.2050    1.000000    
      5 Te2   c    0.215429    0.215429    0.215429     -0.2050    1.000000    
--------------------------------------------------------------------------------



********************************************************************************
*  Input for Configuration =  39                                               *
********************************************************************************

  Formula = Sb2Te3                                                      

  Number of irreducible atoms/shells =       5


  Total number atoms/shells =       5

  Dimensionality = 3               :  Bulk   



  Cartesian lattice vectors (Angstroms) :

       -2.504286    0.000000   10.443767
        1.252143   -2.168775   10.443767
        1.252143    2.168775   10.443767

  Cell parameters (Angstroms/Degrees):

  a =      10.7398    alpha =  23.3006
  b =      10.7398    beta  =  23.3006
  c =      10.7398    gamma =  23.3006

  Initial cell volume =         170.167643 Angs**3

  Temperature of configuration =  0.000     K 

  Pressure of configuration =         0.000 GPa 

  Fractional coordinates of asymmetric unit :

--------------------------------------------------------------------------------
   No.  Atomic       x           y          z         Charge      Occupancy
        Label      (Frac)      (Frac)     (Frac)        (e)         (Frac)  
--------------------------------------------------------------------------------
      1 Sb    c    0.396797    0.396797    0.396797      0.1150    1.000000    
      2 Sb    c    0.603203    0.603203    0.603203      0.1150    1.000000    
      3 Te1   c    0.010000    0.010000    0.010000      0.1800    1.000000    
      4 Te2   c    0.784571    0.784571    0.784571     -0.2050    1.000000    
      5 Te2   c    0.215429    0.215429    0.215429     -0.2050    1.000000    
--------------------------------------------------------------------------------



********************************************************************************
*  Input for Configuration =  40                                               *
********************************************************************************

  Formula = Sb2Te3                                                      

  Number of irreducible atoms/shells =       5


  Total number atoms/shells =       5

  Dimensionality = 3               :  Bulk   



  Cartesian lattice vectors (Angstroms) :

       -2.504286    0.000000   10.443767
        1.252143   -2.168775   10.443767
        1.252143    2.168775   10.443767

  Cell parameters (Angstroms/Degrees):

  a =      10.7398    alpha =  23.3006
  b =      10.7398    beta  =  23.3006
  c =      10.7398    gamma =  23.3006

  Initial cell volume =         170.167643 Angs**3

  Temperature of configuration =  0.000     K 

  Pressure of configuration =         0.000 GPa 

  Fractional coordinates of asymmetric unit :

--------------------------------------------------------------------------------
   No.  Atomic       x           y          z         Charge      Occupancy
        Label      (Frac)      (Frac)     (Frac)        (e)         (Frac)  
--------------------------------------------------------------------------------
      1 Sb    c    0.396797    0.396797    0.396797      0.1150    1.000000    
      2 Sb    c    0.603203    0.603203    0.603203      0.1150    1.000000    
      3 Te1   c    0.020000    0.020000    0.020000      0.1800    1.000000    
      4 Te2   c    0.784571    0.784571    0.784571     -0.2050    1.000000    
      5 Te2   c    0.215429    0.215429    0.215429     -0.2050    1.000000    
--------------------------------------------------------------------------------



********************************************************************************
*  Input for Configuration =  41                                               *
********************************************************************************

  Formula = Sb2Te3                                                      

  Number of irreducible atoms/shells =       5


  Total number atoms/shells =       5

  Dimensionality = 3               :  Bulk   



  Cartesian lattice vectors (Angstroms) :

       -2.504286    0.000000   10.443767
        1.252143   -2.168775   10.443767
        1.252143    2.168775   10.443767

  Cell parameters (Angstroms/Degrees):

  a =      10.7398    alpha =  23.3006
  b =      10.7398    beta  =  23.3006
  c =      10.7398    gamma =  23.3006

  Initial cell volume =         170.167643 Angs**3

  Temperature of configuration =  0.000     K 

  Pressure of configuration =         0.000 GPa 

  Fractional coordinates of asymmetric unit :

--------------------------------------------------------------------------------
   No.  Atomic       x           y          z         Charge      Occupancy
        Label      (Frac)      (Frac)     (Frac)        (e)         (Frac)  
--------------------------------------------------------------------------------
      1 Sb    c    0.396797    0.396797    0.396797      0.1150    1.000000    
      2 Sb    c    0.603203    0.603203    0.603203      0.1150    1.000000    
      3 Te1   c    0.030000    0.030000    0.030000      0.1800    1.000000    
      4 Te2   c    0.784571    0.784571    0.784571     -0.2050    1.000000    
      5 Te2   c    0.215429    0.215429    0.215429     -0.2050    1.000000    
--------------------------------------------------------------------------------



********************************************************************************
*  Input for Configuration =  42                                               *
********************************************************************************

  Formula = Sb2Te3                                                      

  Number of irreducible atoms/shells =       5


  Total number atoms/shells =       5

  Dimensionality = 3               :  Bulk   



  Cartesian lattice vectors (Angstroms) :

       -2.504286    0.000000   10.443767
        1.252143   -2.168775   10.443767
        1.252143    2.168775   10.443767

  Cell parameters (Angstroms/Degrees):

  a =      10.7398    alpha =  23.3006
  b =      10.7398    beta  =  23.3006
  c =      10.7398    gamma =  23.3006

  Initial cell volume =         170.167643 Angs**3

  Temperature of configuration =  0.000     K 

  Pressure of configuration =         0.000 GPa 

  Fractional coordinates of asymmetric unit :

--------------------------------------------------------------------------------
   No.  Atomic       x           y          z         Charge      Occupancy
        Label      (Frac)      (Frac)     (Frac)        (e)         (Frac)  
--------------------------------------------------------------------------------
      1 Sb    c    0.396797    0.396797    0.396797      0.1150    1.000000    
      2 Sb    c    0.603203    0.603203    0.603203      0.1150    1.000000    
      3 Te1   c    0.040000    0.040000    0.040000      0.1800    1.000000    
      4 Te2   c    0.784571    0.784571    0.784571     -0.2050    1.000000    
      5 Te2   c    0.215429    0.215429    0.215429     -0.2050    1.000000    
--------------------------------------------------------------------------------



********************************************************************************
*  Input for Configuration =  43                                               *
********************************************************************************

  Formula = Sb2Te3                                                      

  Number of irreducible atoms/shells =       5


  Total number atoms/shells =       5

  Dimensionality = 3               :  Bulk   



  Cartesian lattice vectors (Angstroms) :

       -2.504286    0.000000   10.443767
        1.252143   -2.168775   10.443767
        1.252143    2.168775   10.443767

  Cell parameters (Angstroms/Degrees):

  a =      10.7398    alpha =  23.3006
  b =      10.7398    beta  =  23.3006
  c =      10.7398    gamma =  23.3006

  Initial cell volume =         170.167643 Angs**3

  Temperature of configuration =  0.000     K 

  Pressure of configuration =         0.000 GPa 

  Fractional coordinates of asymmetric unit :

--------------------------------------------------------------------------------
   No.  Atomic       x           y          z         Charge      Occupancy
        Label      (Frac)      (Frac)     (Frac)        (e)         (Frac)  
--------------------------------------------------------------------------------
      1 Sb    c    0.396797    0.396797    0.396797      0.1150    1.000000    
      2 Sb    c    0.603203    0.603203    0.603203      0.1150    1.000000    
      3 Te1   c    0.050000    0.050000    0.050000      0.1800    1.000000    
      4 Te2   c    0.784571    0.784571    0.784571     -0.2050    1.000000    
      5 Te2   c    0.215429    0.215429    0.215429     -0.2050    1.000000    
--------------------------------------------------------------------------------



********************************************************************************
*  Input for Configuration =  44                                               *
********************************************************************************

  Formula = Sb2Te3                                                      

  Number of irreducible atoms/shells =       5


  Total number atoms/shells =       5

  Dimensionality = 3               :  Bulk   



  Cartesian lattice vectors (Angstroms) :

       -2.504286    0.000000   10.443767
        1.252143   -2.168775   10.443767
        1.252143    2.168775   10.443767

  Cell parameters (Angstroms/Degrees):

  a =      10.7398    alpha =  23.3006
  b =      10.7398    beta  =  23.3006
  c =      10.7398    gamma =  23.3006

  Initial cell volume =         170.167643 Angs**3

  Temperature of configuration =  0.000     K 

  Pressure of configuration =         0.000 GPa 

  Fractional coordinates of asymmetric unit :

--------------------------------------------------------------------------------
   No.  Atomic       x           y          z         Charge      Occupancy
        Label      (Frac)      (Frac)     (Frac)        (e)         (Frac)  
--------------------------------------------------------------------------------
      1 Sb    c    0.396797    0.396797    0.396797      0.1150    1.000000    
      2 Sb    c    0.603203    0.603203    0.603203      0.1150    1.000000    
      3 Te1   c    0.060000    0.060000    0.060000      0.1800    1.000000    
      4 Te2   c    0.784571    0.784571    0.784571     -0.2050    1.000000    
      5 Te2   c    0.215429    0.215429    0.215429     -0.2050    1.000000    
--------------------------------------------------------------------------------



********************************************************************************
*  Input for Configuration =  45                                               *
********************************************************************************

  Formula = Sb2Te3                                                      

  Number of irreducible atoms/shells =       5


  Total number atoms/shells =       5

  Dimensionality = 3               :  Bulk   



  Cartesian lattice vectors (Angstroms) :

       -2.504286    0.000000   10.443767
        1.252143   -2.168775   10.443767
        1.252143    2.168775   10.443767

[...]
--------------------------------------------------------------------------------
  Total lattice energy       =           -1772.5640 kJ/(mole unit cells)
--------------------------------------------------------------------------------

  Born effective charge tensors : 

-------------------------------------------------------------------------------
  Atom             x           y             z
-------------------------------------------------------------------------------
   1 Sb    x       0.1114      0.0000      0.0000
           y       0.0000      0.1114      0.0000
           z       0.0000      0.0000      0.1114
-------------------------------------------------------------------------------
   2 Sb    x       0.1114      0.0000      0.0000
           y       0.0000      0.1114      0.0000
           z       0.0000      0.0000      0.1114
-------------------------------------------------------------------------------
   3 Te1   x       0.2215      0.0000      0.0000
           y       0.0000      0.2215      0.0000
           z       0.0000      0.0000      0.2215
-------------------------------------------------------------------------------
   4 Te2   x      -0.2222      0.0000      0.0000
           y       0.0000     -0.2222      0.0000
           z       0.0000      0.0000     -0.2222
-------------------------------------------------------------------------------
   5 Te2   x      -0.2222      0.0000      0.0000
           y       0.0000     -0.2222      0.0000
           z       0.0000      0.0000     -0.2222
-------------------------------------------------------------------------------




  Elastic Constant Matrix: (Units=GPa)

-------------------------------------------------------------------------------
  Indices      1         2         3         4         5         6    
-------------------------------------------------------------------------------
       1     66.1966   33.3789   45.4677  -11.0846   -3.6818   -6.2012
       2     33.3789   45.5962   24.8297   14.7889   21.6481   10.6372
       3     45.4677   24.8297   32.3219   -2.6173  -12.6941    4.4441
       4    -11.0846   14.7889   -2.6173   18.2792    4.5181   21.6921
       5     -3.6818   21.6481  -12.6941    4.5181   39.2610  -11.0756
       6     -6.2012   10.6372    4.4441   21.6921  -11.0756   27.1821
-------------------------------------------------------------------------------


  Elastic Compliance Matrix: (Units=1/GPa)

-------------------------------------------------------------------------------
  Indices      1         2         3         4         5         6    
-------------------------------------------------------------------------------
       1   -2.701509  1.942017  2.097030 -0.284273 -1.168719 -1.968483
       2    1.942017 -1.478859 -1.413709  0.233075  0.920402  1.441927
       3    2.097030 -1.413709 -1.699649  0.171824  0.833369  1.511963
       4   -0.284273  0.233075  0.171824 -0.272164 -0.066637  0.005888
       5   -1.168719  0.920402  0.833369 -0.066637 -0.581623 -0.946870
       6   -1.968483  1.441927  1.511963  0.005888 -0.946870 -1.614272
-------------------------------------------------------------------------------

 Mechanical properties :

-------------------------------------------------------------------------------
  Convention :                    Reuss         Voigt         Hill
-------------------------------------------------------------------------------
  Bulk  Modulus (GPa)     =      -1.58896      39.05193      18.73149
  Shear Modulus (GPa)     =      -0.36209      19.64034       9.63912
-------------------------------------------------------------------------------
  Velocity S-wave (km/s)  =      -0.76970       5.66868       3.97124
  Velocity P-wave (km/s)  =       1.84110      10.33145       7.18850
-------------------------------------------------------------------------------
  Compressibility (1/GPa) =   -0.62934298
-------------------------------------------------------------------------------
  Stress axis :                     x             y             z
-------------------------------------------------------------------------------
  Youngs Moduli (GPa)     =      -0.37016      -0.67620      -0.58836
-------------------------------------------------------------------------------
  Poissons Ratio (x)      =                     1.31319       1.23380
  Poissons Ratio (y)      =       0.71886                    -0.83177
  Poissons Ratio (z)      =       0.77624      -0.95595
-------------------------------------------------------------------------------


  Piezoelectric Strain Matrix: (Units=C/m**2)

-------------------------------------------------------------------------------
  Indices      1         2         3         4         5         6    
-------------------------------------------------------------------------------
       x     0.00000   0.00000   0.00000  -0.00000  -0.00000  -0.00000
       y    -0.00000   0.00000   0.00000   0.00000  -0.00000   0.00000
       z    -0.00000   0.00000  -0.00000   0.00000   0.00000  -0.00000
-------------------------------------------------------------------------------


  Piezoelectric Stress Matrix: (Units=10**-11 C/N)

-------------------------------------------------------------------------------
  Indices      1         2         3         4         5         6    
-------------------------------------------------------------------------------
       x     0.00005  -0.00004  -0.00004   0.00001   0.00002   0.00004
       y     0.00001  -0.00001  -0.00001  -0.00000   0.00001   0.00001
       z     0.00001  -0.00001  -0.00000   0.00000   0.00000   0.00001
-------------------------------------------------------------------------------


  Static dielectric constant tensor : 

-------------------------------------------------------------------------------
              x         y         z
-------------------------------------------------------------------------------
       x     1.03583  -0.00021  -0.00012
       y    -0.00021   1.03679  -0.00003
       z    -0.00012  -0.00003   1.03682
--------------------------------------------------------------------------------

  Static refractive indices : 

-------------------------------------------------------------------------------
    1 =    1.01773      2 =    1.01825      3 =    1.01825
-------------------------------------------------------------------------------


  Time to end of properties =     610.7182 seconds


********************************************************************************
*  Output for configuration 133                                                *
********************************************************************************


  Components of energy : 

--------------------------------------------------------------------------------
  Interatomic potentials     =          -4.57035431 eV
  Monopole - monopole (real) =           0.02627304 eV
  Monopole - monopole (recip)=          -0.01944282 eV
  Monopole - monopole (total)=           0.00683022 eV
  Energy shift               =         -13.80792466 eV
--------------------------------------------------------------------------------
  Total lattice energy       =         -18.37144875 eV
--------------------------------------------------------------------------------
  Total lattice energy       =           -1772.5640 kJ/(mole unit cells)
--------------------------------------------------------------------------------


  Number of variables =     18

  Maximum number of calculations  =          1000
  Maximum Hessian update interval =            10
  Maximum step size               =   1.000000000
  Maximum parameter tolerance     =   0.000010000
  Maximum function  tolerance     =   0.000010000
  Maximum gradient  tolerance     =   0.001000000
  Maximum gradient  component     =   0.010000000

  Symmetry not applied to optimisation

  Cell parameters to be optimised using strains

  Newton-Raphson optimiser to be used

  BFGS hessian update to be used

  Dumpfile to be written after every cycle

  Start of bulk optimisation :

  Cycle:      0 Energy:       -18.371449  Gnorm:      0.148629  CPU:  610.746
  ** Hessian calculated **
  Cycle:      1 Energy:       -18.396221  Gnorm:      0.246657  CPU:  610.750
  Cycle:      2 Energy:       -18.400109  Gnorm:      0.109551  CPU:  610.782
  Cycle:      3 Energy:       -18.410533  Gnorm:      0.372465  CPU:  610.810
  Cycle:      4 Energy:       -18.433242  Gnorm:      0.321781  CPU:  610.842
  Cycle:      5 Energy:       -18.458686  Gnorm:      0.098386  CPU:  610.870
  Cycle:      6 Energy:       -18.462509  Gnorm:      0.078708  CPU:  610.902
  Cycle:      7 Energy:       -18.462952  Gnorm:      0.014545  CPU:  610.930
  Cycle:      8 Energy:       -18.463074  Gnorm:      0.022443  CPU:  610.958
  Cycle:      9 Energy:       -18.463263  Gnorm:      0.041004  CPU:  610.990
  Cycle:     10 Energy:       -18.463944  Gnorm:      0.047656  CPU:  611.022
  ** Hessian calculated **
  Cycle:     11 Energy:       -18.464103  Gnorm:      0.003733  CPU:  611.054


  **** Optimisation achieved ****


  Final energy =     -18.46410488 eV
  Final Gnorm  =       0.00053615

  Components of energy : 

--------------------------------------------------------------------------------
  Interatomic potentials     =          -4.91272968 eV
  Monopole - monopole (real) =           0.05423373 eV
  Monopole - monopole (recip)=           0.20231573 eV
  Monopole - monopole (total)=           0.25654945 eV
  Energy shift               =         -13.80792466 eV
--------------------------------------------------------------------------------
  Total lattice energy       =         -18.46410488 eV
--------------------------------------------------------------------------------
  Total lattice energy       =           -1781.5039 kJ/(mole unit cells)
--------------------------------------------------------------------------------

  Final fractional coordinates of atoms :

--------------------------------------------------------------------------------
   No.  Atomic        x           y          z          Radius
        Label       (Frac)      (Frac)     (Frac)       (Angs) 
--------------------------------------------------------------------------------
     1  Sb    c     0.396797    0.396797    0.396797    0.000000
     2  Sb    c     0.603761    0.603755    0.603757    0.000000
     3  Te1   c     0.000278    0.000276    0.000279    0.000000
     4  Te2   c     0.786880    0.786882    0.786895    0.000000
     5  Te2   c     0.213674    0.213668    0.213664    0.000000
--------------------------------------------------------------------------------

  Final Cartesian lattice vectors (Angstroms) :

       11.475835    0.308718    0.183335
       10.662051    4.255674    0.183332
       10.662067    2.198303    3.648608


  Final cell parameters and derivatives :

--------------------------------------------------------------------------------
       a           11.481451 Angstrom     dE/de1(xx)     0.001257 eV/strain
       b           11.481451 Angstrom     dE/de2(yy)     0.001344 eV/strain
       c           11.481487 Angstrom     dE/de3(zz)     0.000779 eV/strain
       alpha       20.215547 Degrees      dE/de4(yz)     0.000137 eV/strain
       beta        20.215519 Degrees      dE/de5(xz)     0.000649 eV/strain
       gamma       20.215445 Degrees      dE/de6(xy)    -0.000024 eV/strain
--------------------------------------------------------------------------------

  Primitive cell volume =           158.135834 Angs**3

  Density of cell =      6.576701 g/cm**3

  Non-primitive cell volume =           158.135834 Angs**3


  Final internal derivatives :

--------------------------------------------------------------------------------
   No.  Atomic          x             y             z           Radius
        Label          (eV)          (eV)          (eV)        (eV/Angs)
--------------------------------------------------------------------------------
      1 Sb    c       0.000000      0.000000      0.000000      0.000000
      2 Sb    c      -0.003034     -0.003087     -0.002821      0.000000
      3 Te1   c       0.001932      0.001969      0.002039      0.000000
      4 Te2   c      -0.002983     -0.002865     -0.002185      0.000000
      5 Te2   c       0.003239      0.003186      0.002779      0.000000
--------------------------------------------------------------------------------
  Maximum abs         0.003239      0.003186      0.002821      0.000000
--------------------------------------------------------------------------------


  Born effective charge tensors : 

-------------------------------------------------------------------------------
  Atom             x           y             z
-------------------------------------------------------------------------------
   1 Sb    x       0.1114      0.0000      0.0000
           y       0.0000      0.1114      0.0000
           z       0.0000      0.0000      0.1114
-------------------------------------------------------------------------------
   2 Sb    x       0.1114      0.0000      0.0000
           y       0.0000      0.1114      0.0000
           z       0.0000      0.0000      0.1114
-------------------------------------------------------------------------------
   3 Te1   x       0.2215      0.0000      0.0000
           y       0.0000      0.2215      0.0000
           z       0.0000      0.0000      0.2215
-------------------------------------------------------------------------------
   4 Te2   x      -0.2222      0.0000      0.0000
           y       0.0000     -0.2222      0.0000
           z       0.0000      0.0000     -0.2222
-------------------------------------------------------------------------------
   5 Te2   x      -0.2222      0.0000      0.0000
           y       0.0000     -0.2222      0.0000
           z       0.0000      0.0000     -0.2222
-------------------------------------------------------------------------------




  Elastic Constant Matrix: (Units=GPa)

-------------------------------------------------------------------------------
  Indices      1         2         3         4         5         6    
-------------------------------------------------------------------------------
       1    110.1806   46.2864   60.0938  -12.6583   -2.2780   -3.8339
       2     46.2864   71.6273   34.9818   17.5276   25.8885   12.1378
       3     60.0938   34.9818   55.9902   -3.1898  -15.4736    5.4077
       4    -12.6583   17.5276   -3.1898   27.7597    5.0619   25.6845
       5     -2.2780   25.8885  -15.4736    5.0619   51.2638  -12.7000
       6     -3.8339   12.1378    5.4077   25.6845  -12.7000   37.4125
-------------------------------------------------------------------------------


  Elastic Compliance Matrix: (Units=1/GPa)

-------------------------------------------------------------------------------
  Indices      1         2         3         4         5         6    
-------------------------------------------------------------------------------
       1    0.029545 -0.008351 -0.025727  0.031868 -0.009236 -0.015558
       2   -0.008351  0.079921 -0.058255 -0.045183 -0.055376 -0.006143
       3   -0.025727 -0.058255  0.097818  0.012374  0.060052  0.014015
       4    0.031868 -0.045183  0.012374  0.220227 -0.029736 -0.145149
       5   -0.009236 -0.055376  0.060052 -0.029736  0.082156  0.056642
       6   -0.015558 -0.006143  0.014015 -0.145149  0.056642  0.143978
-------------------------------------------------------------------------------

 Mechanical properties :

-------------------------------------------------------------------------------
  Convention :                    Reuss         Voigt         Hill
-------------------------------------------------------------------------------
  Bulk  Modulus (GPa)     =      44.21495      57.83580      51.02538
  Shear Modulus (GPa)     =       5.91121      29.71625      17.81373
-------------------------------------------------------------------------------
  Velocity S-wave (km/s)  =       2.99802       6.72191       5.20443
  Velocity P-wave (km/s)  =       8.90021      12.17317      10.66301
-------------------------------------------------------------------------------
  Compressibility (1/GPa) =    0.02261679
-------------------------------------------------------------------------------
  Stress axis :                     x             y             z
-------------------------------------------------------------------------------
  Youngs Moduli (GPa)     =      33.84642      12.51236      10.22312
-------------------------------------------------------------------------------
  Poissons Ratio (x)      =                     0.10449       0.26301
  Poissons Ratio (y)      =       0.28266                     0.59555
  Poissons Ratio (z)      =       0.87078       0.72891
-------------------------------------------------------------------------------


  Piezoelectric Strain Matrix: (Units=C/m**2)

-------------------------------------------------------------------------------
  Indices      1         2         3         4         5         6    
-------------------------------------------------------------------------------
       x     0.00003   0.00001   0.00003  -0.00001  -0.00002  -0.00000
       y    -0.00000   0.00001   0.00001   0.00002  -0.00001   0.00001
       z    -0.00004   0.00001  -0.00002   0.00001   0.00004  -0.00001
-------------------------------------------------------------------------------


  Piezoelectric Stress Matrix: (Units=10**-11 C/N)

-------------------------------------------------------------------------------
  Indices      1         2         3         4         5         6    
-------------------------------------------------------------------------------
       x    -0.00002  -0.00000   0.00008  -0.00007   0.00001   0.00004
       y     0.00003  -0.00003   0.00001   0.00028  -0.00007  -0.00017
       z    -0.00007  -0.00002   0.00008   0.00003   0.00010  -0.00003
-------------------------------------------------------------------------------


  Static dielectric constant tensor : 

-------------------------------------------------------------------------------
              x         y         z
-------------------------------------------------------------------------------
       x     1.02687  -0.00244  -0.00144
       y    -0.00244   1.03820  -0.00030
       z    -0.00144  -0.00030   1.03852
--------------------------------------------------------------------------------

  Static refractive indices : 

-------------------------------------------------------------------------------
    1 =    1.01301      2 =    1.01916      3 =    1.01917
-------------------------------------------------------------------------------


  Time to end of optimisation =     611.0862 seconds


  Peak dynamic memory used =       1.64 MB 


  Timing analysis for GULP :

--------------------------------------------------------------------------------
  Task / Subroutine                                          Time (Seconds)
--------------------------------------------------------------------------------
  Calculation of reciprocal space energy and derivatives         35.8022
  Calculation of real space energy and derivatives              557.6269
  Sum of squares for fitting                                     13.0368
  Global summation overhead                                       0.4280
--------------------------------------------------------------------------------
  Total CPU time                                                611.0862
--------------------------------------------------------------------------------


  Dump file written as sb2te3.res                                              



  **** GULP has completed with 132 warnings - beware! ****

  Job Finished at 13:34.49 22nd June       2010                               

