********************************************************************************
*                       GENERAL UTILITY LATTICE PROGRAM                        *
*                                 Julian Gale                                  *
*                      Nanochemistry Research Institute                        *
*             Curtin University of Technology, Western Australia               *
********************************************************************************
* Version = 3.4.7 * Last modified =  21st July 2009                            *
********************************************************************************
*  fit          - perform fitting run                                          *
*  optimise     - perform optimisation run after fitting                       *
*  property     - calculate properties for final geometry                      *
*  fbfgs        - use full numerical Hessian in BFGS for fitting               *
********************************************************************************

  Job Started  at 12:20.19 11th June       2010                               

  Number of CPUs =     1


  Total number of configurations input = 106

********************************************************************************
*  Input for Configuration =   1                                               *
********************************************************************************

  Formula = Sb2Te3                                                      

  Number of irreducible atoms/shells =       5


  Total number atoms/shells =       5

  Dimensionality = 3               :  Bulk   



  Cartesian lattice vectors (Angstroms) :

       -2.504286    0.000000   10.443767
        1.252143   -2.168775   10.443767
        1.252143    2.168775   10.443767

  Cell parameters (Angstroms/Degrees):

  a =      10.7398    alpha =  23.3006
  b =      10.7398    beta  =  23.3006
  c =      10.7398    gamma =  23.3006

  Initial cell volume =         170.167643 Angs**3

  Temperature of configuration =  0.000     K 

  Pressure of configuration =         0.000 GPa 

  Fractional coordinates of asymmetric unit :

--------------------------------------------------------------------------------
   No.  Atomic       x           y          z         Charge      Occupancy
        Label      (Frac)      (Frac)     (Frac)        (e)         (Frac)  
--------------------------------------------------------------------------------
      1 Sb    c    0.369021    0.369021    0.369021      0.6200    1.000000    
      2 Sb    c    0.603203    0.603203    0.603203      0.6200    1.000000    
      3 Te1   c    0.000000    0.000000    0.000000     -0.5000    1.000000    
      4 Te2   c    0.784571    0.784571    0.784571     -0.3700    1.000000    
      5 Te2   c    0.215429    0.215429    0.215429     -0.3700    1.000000    
--------------------------------------------------------------------------------



********************************************************************************
*  Input for Configuration =   2                                               *
********************************************************************************

  Formula = Sb2Te3                                                      

  Number of irreducible atoms/shells =       5


  Total number atoms/shells =       5

  Dimensionality = 3               :  Bulk   



  Cartesian lattice vectors (Angstroms) :

       -2.504286    0.000000   10.443767
        1.252143   -2.168775   10.443767
        1.252143    2.168775   10.443767

  Cell parameters (Angstroms/Degrees):

  a =      10.7398    alpha =  23.3006
  b =      10.7398    beta  =  23.3006
  c =      10.7398    gamma =  23.3006

  Initial cell volume =         170.167643 Angs**3

  Temperature of configuration =  0.000     K 

  Pressure of configuration =         0.000 GPa 

  Fractional coordinates of asymmetric unit :

--------------------------------------------------------------------------------
   No.  Atomic       x           y          z         Charge      Occupancy
        Label      (Frac)      (Frac)     (Frac)        (e)         (Frac)  
--------------------------------------------------------------------------------
      1 Sb    c    0.372989    0.372989    0.372989      0.6200    1.000000    
      2 Sb    c    0.603203    0.603203    0.603203      0.6200    1.000000    
      3 Te1   c    0.000000    0.000000    0.000000     -0.5000    1.000000    
      4 Te2   c    0.784571    0.784571    0.784571     -0.3700    1.000000    
      5 Te2   c    0.215429    0.215429    0.215429     -0.3700    1.000000    
--------------------------------------------------------------------------------



********************************************************************************
*  Input for Configuration =   3                                               *
********************************************************************************

  Formula = Sb2Te3                                                      

  Number of irreducible atoms/shells =       5


  Total number atoms/shells =       5

  Dimensionality = 3               :  Bulk   



  Cartesian lattice vectors (Angstroms) :

       -2.504286    0.000000   10.443767
        1.252143   -2.168775   10.443767
        1.252143    2.168775   10.443767

  Cell parameters (Angstroms/Degrees):

  a =      10.7398    alpha =  23.3006
  b =      10.7398    beta  =  23.3006
  c =      10.7398    gamma =  23.3006

  Initial cell volume =         170.167643 Angs**3

  Temperature of configuration =  0.000     K 

  Pressure of configuration =         0.000 GPa 

  Fractional coordinates of asymmetric unit :

--------------------------------------------------------------------------------
   No.  Atomic       x           y          z         Charge      Occupancy
        Label      (Frac)      (Frac)     (Frac)        (e)         (Frac)  
--------------------------------------------------------------------------------
      1 Sb    c    0.376957    0.376957    0.376957      0.6200    1.000000    
      2 Sb    c    0.603203    0.603203    0.603203      0.6200    1.000000    
      3 Te1   c    0.000000    0.000000    0.000000     -0.5000    1.000000    
      4 Te2   c    0.784571    0.784571    0.784571     -0.3700    1.000000    
      5 Te2   c    0.215429    0.215429    0.215429     -0.3700    1.000000    
--------------------------------------------------------------------------------



********************************************************************************
*  Input for Configuration =   4                                               *
********************************************************************************

  Formula = Sb2Te3                                                      

  Number of irreducible atoms/shells =       5


  Total number atoms/shells =       5

  Dimensionality = 3               :  Bulk   



  Cartesian lattice vectors (Angstroms) :

       -2.504286    0.000000   10.443767
        1.252143   -2.168775   10.443767
        1.252143    2.168775   10.443767

  Cell parameters (Angstroms/Degrees):

  a =      10.7398    alpha =  23.3006
  b =      10.7398    beta  =  23.3006
  c =      10.7398    gamma =  23.3006

  Initial cell volume =         170.167643 Angs**3

  Temperature of configuration =  0.000     K 

  Pressure of configuration =         0.000 GPa 

  Fractional coordinates of asymmetric unit :

--------------------------------------------------------------------------------
   No.  Atomic       x           y          z         Charge      Occupancy
        Label      (Frac)      (Frac)     (Frac)        (e)         (Frac)  
--------------------------------------------------------------------------------
      1 Sb    c    0.380925    0.380925    0.380925      0.6200    1.000000    
      2 Sb    c    0.603203    0.603203    0.603203      0.6200    1.000000    
      3 Te1   c    0.000000    0.000000    0.000000     -0.5000    1.000000    
      4 Te2   c    0.784571    0.784571    0.784571     -0.3700    1.000000    
      5 Te2   c    0.215429    0.215429    0.215429     -0.3700    1.000000    
--------------------------------------------------------------------------------



********************************************************************************
*  Input for Configuration =   5                                               *
********************************************************************************

  Formula = Sb2Te3                                                      

  Number of irreducible atoms/shells =       5


  Total number atoms/shells =       5

  Dimensionality = 3               :  Bulk   



  Cartesian lattice vectors (Angstroms) :

       -2.504286    0.000000   10.443767
        1.252143   -2.168775   10.443767
        1.252143    2.168775   10.443767

  Cell parameters (Angstroms/Degrees):

  a =      10.7398    alpha =  23.3006
  b =      10.7398    beta  =  23.3006
  c =      10.7398    gamma =  23.3006

  Initial cell volume =         170.167643 Angs**3

  Temperature of configuration =  0.000     K 

  Pressure of configuration =         0.000 GPa 

  Fractional coordinates of asymmetric unit :

--------------------------------------------------------------------------------
   No.  Atomic       x           y          z         Charge      Occupancy
        Label      (Frac)      (Frac)     (Frac)        (e)         (Frac)  
--------------------------------------------------------------------------------
      1 Sb    c    0.384893    0.384893    0.384893      0.6200    1.000000    
      2 Sb    c    0.603203    0.603203    0.603203      0.6200    1.000000    
      3 Te1   c    0.000000    0.000000    0.000000     -0.5000    1.000000    
      4 Te2   c    0.784571    0.784571    0.784571     -0.3700    1.000000    
      5 Te2   c    0.215429    0.215429    0.215429     -0.3700    1.000000    
--------------------------------------------------------------------------------



********************************************************************************
*  Input for Configuration =   6                                               *
********************************************************************************

  Formula = Sb2Te3                                                      

  Number of irreducible atoms/shells =       5


  Total number atoms/shells =       5

  Dimensionality = 3               :  Bulk   



  Cartesian lattice vectors (Angstroms) :

       -2.504286    0.000000   10.443767
        1.252143   -2.168775   10.443767
        1.252143    2.168775   10.443767

  Cell parameters (Angstroms/Degrees):

  a =      10.7398    alpha =  23.3006
  b =      10.7398    beta  =  23.3006
  c =      10.7398    gamma =  23.3006

  Initial cell volume =         170.167643 Angs**3

  Temperature of configuration =  0.000     K 

  Pressure of configuration =         0.000 GPa 

  Fractional coordinates of asymmetric unit :

--------------------------------------------------------------------------------
   No.  Atomic       x           y          z         Charge      Occupancy
        Label      (Frac)      (Frac)     (Frac)        (e)         (Frac)  
--------------------------------------------------------------------------------
      1 Sb    c    0.388861    0.388861    0.388861      0.6200    1.000000    
      2 Sb    c    0.603203    0.603203    0.603203      0.6200    1.000000    
      3 Te1   c    0.000000    0.000000    0.000000     -0.5000    1.000000    
      4 Te2   c    0.784571    0.784571    0.784571     -0.3700    1.000000    
      5 Te2   c    0.215429    0.215429    0.215429     -0.3700    1.000000    
--------------------------------------------------------------------------------



********************************************************************************
*  Input for Configuration =   7                                               *
********************************************************************************

  Formula = Sb2Te3                                                      

  Number of irreducible atoms/shells =       5


  Total number atoms/shells =       5

  Dimensionality = 3               :  Bulk   



  Cartesian lattice vectors (Angstroms) :

       -2.504286    0.000000   10.443767
        1.252143   -2.168775   10.443767
        1.252143    2.168775   10.443767

  Cell parameters (Angstroms/Degrees):

  a =      10.7398    alpha =  23.3006
  b =      10.7398    beta  =  23.3006
  c =      10.7398    gamma =  23.3006

  Initial cell volume =         170.167643 Angs**3

  Temperature of configuration =  0.000     K 

  Pressure of configuration =         0.000 GPa 

  Fractional coordinates of asymmetric unit :

--------------------------------------------------------------------------------
   No.  Atomic       x           y          z         Charge      Occupancy
        Label      (Frac)      (Frac)     (Frac)        (e)         (Frac)  
--------------------------------------------------------------------------------
      1 Sb    c    0.392829    0.392829    0.392829      0.6200    1.000000    
      2 Sb    c    0.603203    0.603203    0.603203      0.6200    1.000000    
      3 Te1   c    0.000000    0.000000    0.000000     -0.5000    1.000000    
      4 Te2   c    0.784571    0.784571    0.784571     -0.3700    1.000000    
      5 Te2   c    0.215429    0.215429    0.215429     -0.3700    1.000000    
--------------------------------------------------------------------------------



********************************************************************************
*  Input for Configuration =   8                                               *
********************************************************************************

  Formula = Sb2Te3                                                      

  Number of irreducible atoms/shells =       5


  Total number atoms/shells =       5

  Dimensionality = 3               :  Bulk   



  Cartesian lattice vectors (Angstroms) :

       -2.504286    0.000000   10.443767
        1.252143   -2.168775   10.443767
        1.252143    2.168775   10.443767

  Cell parameters (Angstroms/Degrees):

  a =      10.7398    alpha =  23.3006
  b =      10.7398    beta  =  23.3006
  c =      10.7398    gamma =  23.3006

  Initial cell volume =         170.167643 Angs**3

  Temperature of configuration =  0.000     K 

  Pressure of configuration =         0.000 GPa 

  Fractional coordinates of asymmetric unit :

--------------------------------------------------------------------------------
   No.  Atomic       x           y          z         Charge      Occupancy
        Label      (Frac)      (Frac)     (Frac)        (e)         (Frac)  
--------------------------------------------------------------------------------
      1 Sb    c    0.396797    0.396797    0.396797      0.6200    1.000000    
      2 Sb    c    0.603203    0.603203    0.603203      0.6200    1.000000    
      3 Te1   c    0.000000    0.000000    0.000000     -0.5000    1.000000    
      4 Te2   c    0.784571    0.784571    0.784571     -0.3700    1.000000    
      5 Te2   c    0.215429    0.215429    0.215429     -0.3700    1.000000    
--------------------------------------------------------------------------------



********************************************************************************
*  Input for Configuration =   9                                               *
********************************************************************************

  Formula = Sb2Te3                                                      

  Number of irreducible atoms/shells =       5


  Total number atoms/shells =       5

  Dimensionality = 3               :  Bulk   



  Cartesian lattice vectors (Angstroms) :

       -2.504286    0.000000   10.443767
        1.252143   -2.168775   10.443767
        1.252143    2.168775   10.443767

  Cell parameters (Angstroms/Degrees):

  a =      10.7398    alpha =  23.3006
  b =      10.7398    beta  =  23.3006
  c =      10.7398    gamma =  23.3006

  Initial cell volume =         170.167643 Angs**3

  Temperature of configuration =  0.000     K 

  Pressure of configuration =         0.000 GPa 

  Fractional coordinates of asymmetric unit :

--------------------------------------------------------------------------------
   No.  Atomic       x           y          z         Charge      Occupancy
        Label      (Frac)      (Frac)     (Frac)        (e)         (Frac)  
--------------------------------------------------------------------------------
      1 Sb    c    0.400765    0.400765    0.400765      0.6200    1.000000    
      2 Sb    c    0.603203    0.603203    0.603203      0.6200    1.000000    
      3 Te1   c    0.000000    0.000000    0.000000     -0.5000    1.000000    
      4 Te2   c    0.784571    0.784571    0.784571     -0.3700    1.000000    
      5 Te2   c    0.215429    0.215429    0.215429     -0.3700    1.000000    
--------------------------------------------------------------------------------



********************************************************************************
*  Input for Configuration =  10                                               *
********************************************************************************

  Formula = Sb2Te3                                                      

  Number of irreducible atoms/shells =       5


  Total number atoms/shells =       5

  Dimensionality = 3               :  Bulk   



  Cartesian lattice vectors (Angstroms) :

       -2.504286    0.000000   10.443767
        1.252143   -2.168775   10.443767
        1.252143    2.168775   10.443767

  Cell parameters (Angstroms/Degrees):

  a =      10.7398    alpha =  23.3006
  b =      10.7398    beta  =  23.3006
  c =      10.7398    gamma =  23.3006

  Initial cell volume =         170.167643 Angs**3

  Temperature of configuration =  0.000     K 

  Pressure of configuration =         0.000 GPa 

  Fractional coordinates of asymmetric unit :

--------------------------------------------------------------------------------
   No.  Atomic       x           y          z         Charge      Occupancy
        Label      (Frac)      (Frac)     (Frac)        (e)         (Frac)  
--------------------------------------------------------------------------------
      1 Sb    c    0.404733    0.404733    0.404733      0.6200    1.000000    
      2 Sb    c    0.603203    0.603203    0.603203      0.6200    1.000000    
      3 Te1   c    0.000000    0.000000    0.000000     -0.5000    1.000000    
      4 Te2   c    0.784571    0.784571    0.784571     -0.3700    1.000000    
      5 Te2   c    0.215429    0.215429    0.215429     -0.3700    1.000000    
--------------------------------------------------------------------------------



********************************************************************************
*  Input for Configuration =  11                                               *
********************************************************************************

  Formula = Sb2Te3                                                      

  Number of irreducible atoms/shells =       5


  Total number atoms/shells =       5

  Dimensionality = 3               :  Bulk   



  Cartesian lattice vectors (Angstroms) :

       -2.504286    0.000000   10.443767
        1.252143   -2.168775   10.443767
        1.252143    2.168775   10.443767

  Cell parameters (Angstroms/Degrees):

  a =      10.7398    alpha =  23.3006
  b =      10.7398    beta  =  23.3006
  c =      10.7398    gamma =  23.3006

  Initial cell volume =         170.167643 Angs**3

  Temperature of configuration =  0.000     K 

  Pressure of configuration =         0.000 GPa 

  Fractional coordinates of asymmetric unit :

--------------------------------------------------------------------------------
   No.  Atomic       x           y          z         Charge      Occupancy
        Label      (Frac)      (Frac)     (Frac)        (e)         (Frac)  
--------------------------------------------------------------------------------
      1 Sb    c    0.408700    0.408700    0.408700      0.6200    1.000000    
      2 Sb    c    0.603203    0.603203    0.603203      0.6200    1.000000    
      3 Te1   c    0.000000    0.000000    0.000000     -0.5000    1.000000    
      4 Te2   c    0.784571    0.784571    0.784571     -0.3700    1.000000    
      5 Te2   c    0.215429    0.215429    0.215429     -0.3700    1.000000    
--------------------------------------------------------------------------------



********************************************************************************
*  Input for Configuration =  12                                               *
********************************************************************************

  Formula = Sb2Te3                                                      

  Number of irreducible atoms/shells =       5


  Total number atoms/shells =       5

  Dimensionality = 3               :  Bulk   



  Cartesian lattice vectors (Angstroms) :

       -2.504286    0.000000   10.443767
        1.252143   -2.168775   10.443767
        1.252143    2.168775   10.443767

  Cell parameters (Angstroms/Degrees):

  a =      10.7398    alpha =  23.3006
  b =      10.7398    beta  =  23.3006
  c =      10.7398    gamma =  23.3006

  Initial cell volume =         170.167643 Angs**3

  Temperature of configuration =  0.000     K 

  Pressure of configuration =         0.000 GPa 

  Fractional coordinates of asymmetric unit :

--------------------------------------------------------------------------------
   No.  Atomic       x           y          z         Charge      Occupancy
        Label      (Frac)      (Frac)     (Frac)        (e)         (Frac)  
--------------------------------------------------------------------------------
      1 Sb    c    0.412668    0.412668    0.412668      0.6200    1.000000    
      2 Sb    c    0.603203    0.603203    0.603203      0.6200    1.000000    
      3 Te1   c    0.000000    0.000000    0.000000     -0.5000    1.000000    
      4 Te2   c    0.784571    0.784571    0.784571     -0.3700    1.000000    
      5 Te2   c    0.215429    0.215429    0.215429     -0.3700    1.000000    
--------------------------------------------------------------------------------



********************************************************************************
*  Input for Configuration =  13                                               *
********************************************************************************

  Formula = Sb2Te3                                                      

  Number of irreducible atoms/shells =       5


  Total number atoms/shells =       5

  Dimensionality = 3               :  Bulk   



  Cartesian lattice vectors (Angstroms) :

       -2.504286    0.000000   10.443767
        1.252143   -2.168775   10.443767
        1.252143    2.168775   10.443767

  Cell parameters (Angstroms/Degrees):

  a =      10.7398    alpha =  23.3006
  b =      10.7398    beta  =  23.3006
  c =      10.7398    gamma =  23.3006

  Initial cell volume =         170.167643 Angs**3

  Temperature of configuration =  0.000     K 

  Pressure of configuration =         0.000 GPa 

  Fractional coordinates of asymmetric unit :

--------------------------------------------------------------------------------
   No.  Atomic       x           y          z         Charge      Occupancy
        Label      (Frac)      (Frac)     (Frac)        (e)         (Frac)  
--------------------------------------------------------------------------------
      1 Sb    c    0.416636    0.416636    0.416636      0.6200    1.000000    
      2 Sb    c    0.603203    0.603203    0.603203      0.6200    1.000000    
      3 Te1   c    0.000000    0.000000    0.000000     -0.5000    1.000000    
      4 Te2   c    0.784571    0.784571    0.784571     -0.3700    1.000000    
      5 Te2   c    0.215429    0.215429    0.215429     -0.3700    1.000000    
--------------------------------------------------------------------------------



********************************************************************************
*  Input for Configuration =  14                                               *
********************************************************************************

  Formula = Sb2Te3                                                      

  Number of irreducible atoms/shells =       5


  Total number atoms/shells =       5

  Dimensionality = 3               :  Bulk   



  Cartesian lattice vectors (Angstroms) :

       -2.504286    0.000000   10.443767
        1.252143   -2.168775   10.443767
        1.252143    2.168775   10.443767

  Cell parameters (Angstroms/Degrees):

  a =      10.7398    alpha =  23.3006
  b =      10.7398    beta  =  23.3006
  c =      10.7398    gamma =  23.3006

  Initial cell volume =         170.167643 Angs**3

  Temperature of configuration =  0.000     K 

  Pressure of configuration =         0.000 GPa 

  Fractional coordinates of asymmetric unit :

--------------------------------------------------------------------------------
   No.  Atomic       x           y          z         Charge      Occupancy
        Label      (Frac)      (Frac)     (Frac)        (e)         (Frac)  
--------------------------------------------------------------------------------
      1 Sb    c    0.420604    0.420604    0.420604      0.6200    1.000000    
      2 Sb    c    0.603203    0.603203    0.603203      0.6200    1.000000    
      3 Te1   c    0.000000    0.000000    0.000000     -0.5000    1.000000    
      4 Te2   c    0.784571    0.784571    0.784571     -0.3700    1.000000    
      5 Te2   c    0.215429    0.215429    0.215429     -0.3700    1.000000    
--------------------------------------------------------------------------------



********************************************************************************
*  Input for Configuration =  15                                               *
********************************************************************************

  Formula = Sb2Te3                                                      

  Number of irreducible atoms/shells =       5


  Total number atoms/shells =       5

  Dimensionality = 3               :  Bulk   



  Cartesian lattice vectors (Angstroms) :

       -2.504286    0.000000   10.443767
        1.252143   -2.168775   10.443767
        1.252143    2.168775   10.443767

  Cell parameters (Angstroms/Degrees):

  a =      10.7398    alpha =  23.3006
  b =      10.7398    beta  =  23.3006
  c =      10.7398    gamma =  23.3006

  Initial cell volume =         170.167643 Angs**3

  Temperature of configuration =  0.000     K 

  Pressure of configuration =         0.000 GPa 

  Fractional coordinates of asymmetric unit :

--------------------------------------------------------------------------------
   No.  Atomic       x           y          z         Charge      Occupancy
        Label      (Frac)      (Frac)     (Frac)        (e)         (Frac)  
--------------------------------------------------------------------------------
      1 Sb    c    0.424572    0.424572    0.424572      0.6200    1.000000    
      2 Sb    c    0.603203    0.603203    0.603203      0.6200    1.000000    
      3 Te1   c    0.000000    0.000000    0.000000     -0.5000    1.000000    
      4 Te2   c    0.784571    0.784571    0.784571     -0.3700    1.000000    
      5 Te2   c    0.215429    0.215429    0.215429     -0.3700    1.000000    
--------------------------------------------------------------------------------



********************************************************************************
*  Input for Configuration =  16                                               *
********************************************************************************

  Formula = Sb2Te3                                                      

  Number of irreducible atoms/shells =       5


  Total number atoms/shells =       5

  Dimensionality = 3               :  Bulk   



  Cartesian lattice vectors (Angstroms) :

       -2.504286    0.000000   10.443767
        1.252143   -2.168775   10.443767
        1.252143    2.168775   10.443767

  Cell parameters (Angstroms/Degrees):

  a =      10.7398    alpha =  23.3006
  b =      10.7398    beta  =  23.3006
  c =      10.7398    gamma =  23.3006

  Initial cell volume =         170.167643 Angs**3

  Temperature of configuration =  0.000     K 

  Pressure of configuration =         0.000 GPa 

  Fractional coordinates of asymmetric unit :

--------------------------------------------------------------------------------
   No.  Atomic       x           y          z         Charge      Occupancy
        Label      (Frac)      (Frac)     (Frac)        (e)         (Frac)  
--------------------------------------------------------------------------------
      1 Sb    c    0.396797    0.396797    0.396797      0.6200    1.000000    
      2 Sb    c    0.560979    0.560979    0.560979      0.6200    1.000000    
      3 Te1   c    0.000000    0.000000    0.000000     -0.5000    1.000000    
      4 Te2   c    0.784571    0.784571    0.784571     -0.3700    1.000000    
      5 Te2   c    0.215429    0.215429    0.215429     -0.3700    1.000000    
--------------------------------------------------------------------------------



********************************************************************************
*  Input for Configuration =  17                                               *
********************************************************************************

  Formula = Sb2Te3                                                      

  Number of irreducible atoms/shells =       5


  Total number atoms/shells =       5

  Dimensionality = 3               :  Bulk   



  Cartesian lattice vectors (Angstroms) :

       -2.504286    0.000000   10.443767
        1.252143   -2.168775   10.443767
        1.252143    2.168775   10.443767

  Cell parameters (Angstroms/Degrees):

  a =      10.7398    alpha =  23.3006
  b =      10.7398    beta  =  23.3006
  c =      10.7398    gamma =  23.3006

  Initial cell volume =         170.167643 Angs**3

  Temperature of configuration =  0.000     K 

  Pressure of configuration =         0.000 GPa 

  Fractional coordinates of asymmetric unit :

--------------------------------------------------------------------------------
   No.  Atomic       x           y          z         Charge      Occupancy
        Label      (Frac)      (Frac)     (Frac)        (e)         (Frac)  
--------------------------------------------------------------------------------
      1 Sb    c    0.396797    0.396797    0.396797      0.6200    1.000000    
      2 Sb    c    0.567011    0.567011    0.567011      0.6200    1.000000    
      3 Te1   c    0.000000    0.000000    0.000000     -0.5000    1.000000    
      4 Te2   c    0.784571    0.784571    0.784571     -0.3700    1.000000    
      5 Te2   c    0.215429    0.215429    0.215429     -0.3700    1.000000    
--------------------------------------------------------------------------------



********************************************************************************
*  Input for Configuration =  18                                               *
********************************************************************************

  Formula = Sb2Te3                                                      

  Number of irreducible atoms/shells =       5


  Total number atoms/shells =       5

  Dimensionality = 3               :  Bulk   



  Cartesian lattice vectors (Angstroms) :

       -2.504286    0.000000   10.443767
        1.252143   -2.168775   10.443767
        1.252143    2.168775   10.443767

  Cell parameters (Angstroms/Degrees):

  a =      10.7398    alpha =  23.3006
  b =      10.7398    beta  =  23.3006
  c =      10.7398    gamma =  23.3006

  Initial cell volume =         170.167643 Angs**3

  Temperature of configuration =  0.000     K 

  Pressure of configuration =         0.000 GPa 

  Fractional coordinates of asymmetric unit :

--------------------------------------------------------------------------------
   No.  Atomic       x           y          z         Charge      Occupancy
        Label      (Frac)      (Frac)     (Frac)        (e)         (Frac)  
--------------------------------------------------------------------------------
      1 Sb    c    0.396797    0.396797    0.396797      0.6200    1.000000    
      2 Sb    c    0.573043    0.573043    0.573043      0.6200    1.000000    
      3 Te1   c    0.000000    0.000000    0.000000     -0.5000    1.000000    
      4 Te2   c    0.784571    0.784571    0.784571     -0.3700    1.000000    
      5 Te2   c    0.215429    0.215429    0.215429     -0.3700    1.000000    
--------------------------------------------------------------------------------



********************************************************************************
*  Input for Configuration =  19                                               *
********************************************************************************

  Formula = Sb2Te3                                                      

  Number of irreducible atoms/shells =       5


  Total number atoms/shells =       5

  Dimensionality = 3               :  Bulk   



  Cartesian lattice vectors (Angstroms) :

       -2.504286    0.000000   10.443767
        1.252143   -2.168775   10.443767
        1.252143    2.168775   10.443767

  Cell parameters (Angstroms/Degrees):

  a =      10.7398    alpha =  23.3006
  b =      10.7398    beta  =  23.3006
  c =      10.7398    gamma =  23.3006

  Initial cell volume =         170.167643 Angs**3

  Temperature of configuration =  0.000     K 

  Pressure of configuration =         0.000 GPa 

  Fractional coordinates of asymmetric unit :

--------------------------------------------------------------------------------
   No.  Atomic       x           y          z         Charge      Occupancy
        Label      (Frac)      (Frac)     (Frac)        (e)         (Frac)  
--------------------------------------------------------------------------------
      1 Sb    c    0.396797    0.396797    0.396797      0.6200    1.000000    
      2 Sb    c    0.579075    0.579075    0.579075      0.6200    1.000000    
      3 Te1   c    0.000000    0.000000    0.000000     -0.5000    1.000000    
      4 Te2   c    0.784571    0.784571    0.784571     -0.3700    1.000000    
      5 Te2   c    0.215429    0.215429    0.215429     -0.3700    1.000000    
--------------------------------------------------------------------------------



********************************************************************************
*  Input for Configuration =  20                                               *
********************************************************************************

  Formula = Sb2Te3                                                      

  Number of irreducible atoms/shells =       5


  Total number atoms/shells =       5

  Dimensionality = 3               :  Bulk   



  Cartesian lattice vectors (Angstroms) :

       -2.504286    0.000000   10.443767
        1.252143   -2.168775   10.443767
        1.252143    2.168775   10.443767

  Cell parameters (Angstroms/Degrees):

  a =      10.7398    alpha =  23.3006
  b =      10.7398    beta  =  23.3006
  c =      10.7398    gamma =  23.3006

  Initial cell volume =         170.167643 Angs**3

  Temperature of configuration =  0.000     K 

  Pressure of configuration =         0.000 GPa 

  Fractional coordinates of asymmetric unit :

--------------------------------------------------------------------------------
   No.  Atomic       x           y          z         Charge      Occupancy
        Label      (Frac)      (Frac)     (Frac)        (e)         (Frac)  
--------------------------------------------------------------------------------
      1 Sb    c    0.396797    0.396797    0.396797      0.6200    1.000000    
      2 Sb    c    0.585107    0.585107    0.585107      0.6200    1.000000    
      3 Te1   c    0.000000    0.000000    0.000000     -0.5000    1.000000    
      4 Te2   c    0.784571    0.784571    0.784571     -0.3700    1.000000    
      5 Te2   c    0.215429    0.215429    0.215429     -0.3700    1.000000    
--------------------------------------------------------------------------------



********************************************************************************
*  Input for Configuration =  21                                               *
********************************************************************************

  Formula = Sb2Te3                                                      

  Number of irreducible atoms/shells =       5


  Total number atoms/shells =       5

  Dimensionality = 3               :  Bulk   



  Cartesian lattice vectors (Angstroms) :

       -2.504286    0.000000   10.443767
        1.252143   -2.168775   10.443767
        1.252143    2.168775   10.443767

  Cell parameters (Angstroms/Degrees):

  a =      10.7398    alpha =  23.3006
  b =      10.7398    beta  =  23.3006
  c =      10.7398    gamma =  23.3006

  Initial cell volume =         170.167643 Angs**3

  Temperature of configuration =  0.000     K 

  Pressure of configuration =         0.000 GPa 

  Fractional coordinates of asymmetric unit :

--------------------------------------------------------------------------------
   No.  Atomic       x           y          z         Charge      Occupancy
        Label      (Frac)      (Frac)     (Frac)        (e)         (Frac)  
--------------------------------------------------------------------------------
      1 Sb    c    0.396797    0.396797    0.396797      0.6200    1.000000    
      2 Sb    c    0.591139    0.591139    0.591139      0.6200    1.000000    
      3 Te1   c    0.000000    0.000000    0.000000     -0.5000    1.000000    
      4 Te2   c    0.784571    0.784571    0.784571     -0.3700    1.000000    
      5 Te2   c    0.215429    0.215429    0.215429     -0.3700    1.000000    
--------------------------------------------------------------------------------



********************************************************************************
*  Input for Configuration =  22                                               *
********************************************************************************

  Formula = Sb2Te3                                                      

  Number of irreducible atoms/shells =       5


  Total number atoms/shells =       5

  Dimensionality = 3               :  Bulk   



  Cartesian lattice vectors (Angstroms) :

       -2.504286    0.000000   10.443767
        1.252143   -2.168775   10.443767
        1.252143    2.168775   10.443767

  Cell parameters (Angstroms/Degrees):

  a =      10.7398    alpha =  23.3006
  b =      10.7398    beta  =  23.3006
  c =      10.7398    gamma =  23.3006

  Initial cell volume =         170.167643 Angs**3

  Temperature of configuration =  0.000     K 

  Pressure of configuration =         0.000 GPa 

  Fractional coordinates of asymmetric unit :

--------------------------------------------------------------------------------
   No.  Atomic       x           y          z         Charge      Occupancy
        Label      (Frac)      (Frac)     (Frac)        (e)         (Frac)  
--------------------------------------------------------------------------------
      1 Sb    c    0.396797    0.396797    0.396797      0.6200    1.000000    
      2 Sb    c    0.597171    0.597171    0.597171      0.6200    1.000000    
      3 Te1   c    0.000000    0.000000    0.000000     -0.5000    1.000000    
      4 Te2   c    0.784571    0.784571    0.784571     -0.3700    1.000000    
      5 Te2   c    0.215429    0.215429    0.215429     -0.3700    1.000000    
--------------------------------------------------------------------------------



********************************************************************************
*  Input for Configuration =  23                                               *
********************************************************************************

  Formula = Sb2Te3                                                      

  Number of irreducible atoms/shells =       5


  Total number atoms/shells =       5

  Dimensionality = 3               :  Bulk   



  Cartesian lattice vectors (Angstroms) :

       -2.504286    0.000000   10.443767
        1.252143   -2.168775   10.443767
        1.252143    2.168775   10.443767

  Cell parameters (Angstroms/Degrees):

  a =      10.7398    alpha =  23.3006
  b =      10.7398    beta  =  23.3006
  c =      10.7398    gamma =  23.3006

  Initial cell volume =         170.167643 Angs**3

  Temperature of configuration =  0.000     K 

  Pressure of configuration =         0.000 GPa 

  Fractional coordinates of asymmetric unit :

--------------------------------------------------------------------------------
   No.  Atomic       x           y          z         Charge      Occupancy
        Label      (Frac)      (Frac)     (Frac)        (e)         (Frac)  
--------------------------------------------------------------------------------
      1 Sb    c    0.396797    0.396797    0.396797      0.6200    1.000000    
      2 Sb    c    0.603203    0.603203    0.603203      0.6200    1.000000    
      3 Te1   c    0.000000    0.000000    0.000000     -0.5000    1.000000    
      4 Te2   c    0.784571    0.784571    0.784571     -0.3700    1.000000    
      5 Te2   c    0.215429    0.215429    0.215429     -0.3700    1.000000    
--------------------------------------------------------------------------------



********************************************************************************
*  Input for Configuration =  24                                               *
********************************************************************************

  Formula = Sb2Te3                                                      

  Number of irreducible atoms/shells =       5


  Total number atoms/shells =       5

  Dimensionality = 3               :  Bulk   



  Cartesian lattice vectors (Angstroms) :

       -2.504286    0.000000   10.443767
        1.252143   -2.168775   10.443767
        1.252143    2.168775   10.443767

  Cell parameters (Angstroms/Degrees):

  a =      10.7398    alpha =  23.3006
  b =      10.7398    beta  =  23.3006
  c =      10.7398    gamma =  23.3006

  Initial cell volume =         170.167643 Angs**3

  Temperature of configuration =  0.000     K 

  Pressure of configuration =         0.000 GPa 

  Fractional coordinates of asymmetric unit :

--------------------------------------------------------------------------------
   No.  Atomic       x           y          z         Charge      Occupancy
        Label      (Frac)      (Frac)     (Frac)        (e)         (Frac)  
--------------------------------------------------------------------------------
      1 Sb    c    0.396797    0.396797    0.396797      0.6200    1.000000    
      2 Sb    c    0.609235    0.609235    0.609235      0.6200    1.000000    
      3 Te1   c    0.000000    0.000000    0.000000     -0.5000    1.000000    
      4 Te2   c    0.784571    0.784571    0.784571     -0.3700    1.000000    
      5 Te2   c    0.215429    0.215429    0.215429     -0.3700    1.000000    
--------------------------------------------------------------------------------



********************************************************************************
*  Input for Configuration =  25                                               *
********************************************************************************

  Formula = Sb2Te3                                                      

  Number of irreducible atoms/shells =       5


  Total number atoms/shells =       5

  Dimensionality = 3               :  Bulk   



  Cartesian lattice vectors (Angstroms) :

       -2.504286    0.000000   10.443767
        1.252143   -2.168775   10.443767
        1.252143    2.168775   10.443767

  Cell parameters (Angstroms/Degrees):

  a =      10.7398    alpha =  23.3006
  b =      10.7398    beta  =  23.3006
  c =      10.7398    gamma =  23.3006

  Initial cell volume =         170.167643 Angs**3

  Temperature of configuration =  0.000     K 

  Pressure of configuration =         0.000 GPa 

  Fractional coordinates of asymmetric unit :

--------------------------------------------------------------------------------
   No.  Atomic       x           y          z         Charge      Occupancy
        Label      (Frac)      (Frac)     (Frac)        (e)         (Frac)  
--------------------------------------------------------------------------------
      1 Sb    c    0.396797    0.396797    0.396797      0.6200    1.000000    
      2 Sb    c    0.615267    0.615267    0.615267      0.6200    1.000000    
      3 Te1   c    0.000000    0.000000    0.000000     -0.5000    1.000000    
      4 Te2   c    0.784571    0.784571    0.784571     -0.3700    1.000000    
      5 Te2   c    0.215429    0.215429    0.215429     -0.3700    1.000000    
--------------------------------------------------------------------------------



********************************************************************************
*  Input for Configuration =  26                                               *
********************************************************************************

  Formula = Sb2Te3                                                      

  Number of irreducible atoms/shells =       5


  Total number atoms/shells =       5

  Dimensionality = 3               :  Bulk   



  Cartesian lattice vectors (Angstroms) :

       -2.504286    0.000000   10.443767
        1.252143   -2.168775   10.443767
        1.252143    2.168775   10.443767

  Cell parameters (Angstroms/Degrees):

  a =      10.7398    alpha =  23.3006
  b =      10.7398    beta  =  23.3006
  c =      10.7398    gamma =  23.3006

  Initial cell volume =         170.167643 Angs**3

  Temperature of configuration =  0.000     K 

  Pressure of configuration =         0.000 GPa 

  Fractional coordinates of asymmetric unit :

--------------------------------------------------------------------------------
   No.  Atomic       x           y          z         Charge      Occupancy
        Label      (Frac)      (Frac)     (Frac)        (e)         (Frac)  
--------------------------------------------------------------------------------
      1 Sb    c    0.396797    0.396797    0.396797      0.6200    1.000000    
      2 Sb    c    0.621300    0.621300    0.621300      0.6200    1.000000    
      3 Te1   c    0.000000    0.000000    0.000000     -0.5000    1.000000    
      4 Te2   c    0.784571    0.784571    0.784571     -0.3700    1.000000    
      5 Te2   c    0.215429    0.215429    0.215429     -0.3700    1.000000    
--------------------------------------------------------------------------------



********************************************************************************
*  Input for Configuration =  27                                               *
********************************************************************************

  Formula = Sb2Te3                                                      

  Number of irreducible atoms/shells =       5


  Total number atoms/shells =       5

  Dimensionality = 3               :  Bulk   



  Cartesian lattice vectors (Angstroms) :

       -2.504286    0.000000   10.443767
        1.252143   -2.168775   10.443767
        1.252143    2.168775   10.443767

  Cell parameters (Angstroms/Degrees):

  a =      10.7398    alpha =  23.3006
  b =      10.7398    beta  =  23.3006
  c =      10.7398    gamma =  23.3006

  Initial cell volume =         170.167643 Angs**3

  Temperature of configuration =  0.000     K 

  Pressure of configuration =         0.000 GPa 

  Fractional coordinates of asymmetric unit :

--------------------------------------------------------------------------------
   No.  Atomic       x           y          z         Charge      Occupancy
        Label      (Frac)      (Frac)     (Frac)        (e)         (Frac)  
--------------------------------------------------------------------------------
      1 Sb    c    0.396797    0.396797    0.396797      0.6200    1.000000    
      2 Sb    c    0.627332    0.627332    0.627332      0.6200    1.000000    
      3 Te1   c    0.000000    0.000000    0.000000     -0.5000    1.000000    
      4 Te2   c    0.784571    0.784571    0.784571     -0.3700    1.000000    
      5 Te2   c    0.215429    0.215429    0.215429     -0.3700    1.000000    
--------------------------------------------------------------------------------



********************************************************************************
*  Input for Configuration =  28                                               *
********************************************************************************

  Formula = Sb2Te3                                                      

  Number of irreducible atoms/shells =       5


  Total number atoms/shells =       5

  Dimensionality = 3               :  Bulk   



  Cartesian lattice vectors (Angstroms) :

       -2.504286    0.000000   10.443767
        1.252143   -2.168775   10.443767
        1.252143    2.168775   10.443767

  Cell parameters (Angstroms/Degrees):

  a =      10.7398    alpha =  23.3006
  b =      10.7398    beta  =  23.3006
  c =      10.7398    gamma =  23.3006

  Initial cell volume =         170.167643 Angs**3

  Temperature of configuration =  0.000     K 

  Pressure of configuration =         0.000 GPa 

  Fractional coordinates of asymmetric unit :

--------------------------------------------------------------------------------
   No.  Atomic       x           y          z         Charge      Occupancy
        Label      (Frac)      (Frac)     (Frac)        (e)         (Frac)  
--------------------------------------------------------------------------------
      1 Sb    c    0.396797    0.396797    0.396797      0.6200    1.000000    
      2 Sb    c    0.633364    0.633364    0.633364      0.6200    1.000000    
      3 Te1   c    0.000000    0.000000    0.000000     -0.5000    1.000000    
      4 Te2   c    0.784571    0.784571    0.784571     -0.3700    1.000000    
      5 Te2   c    0.215429    0.215429    0.215429     -0.3700    1.000000    
--------------------------------------------------------------------------------



********************************************************************************
*  Input for Configuration =  29                                               *
********************************************************************************

  Formula = Sb2Te3                                                      

  Number of irreducible atoms/shells =       5


  Total number atoms/shells =       5

  Dimensionality = 3               :  Bulk   



  Cartesian lattice vectors (Angstroms) :

       -2.504286    0.000000   10.443767
        1.252143   -2.168775   10.443767
        1.252143    2.168775   10.443767

  Cell parameters (Angstroms/Degrees):

  a =      10.7398    alpha =  23.3006
  b =      10.7398    beta  =  23.3006
  c =      10.7398    gamma =  23.3006

  Initial cell volume =         170.167643 Angs**3

  Temperature of configuration =  0.000     K 

  Pressure of configuration =         0.000 GPa 

  Fractional coordinates of asymmetric unit :

--------------------------------------------------------------------------------
   No.  Atomic       x           y          z         Charge      Occupancy
        Label      (Frac)      (Frac)     (Frac)        (e)         (Frac)  
--------------------------------------------------------------------------------
      1 Sb    c    0.396797    0.396797    0.396797      0.6200    1.000000    
      2 Sb    c    0.639396    0.639396    0.639396      0.6200    1.000000    
      3 Te1   c    0.000000    0.000000    0.000000     -0.5000    1.000000    
      4 Te2   c    0.784571    0.784571    0.784571     -0.3700    1.000000    
      5 Te2   c    0.215429    0.215429    0.215429     -0.3700    1.000000    
--------------------------------------------------------------------------------



********************************************************************************
*  Input for Configuration =  30                                               *
********************************************************************************

  Formula = Sb2Te3                                                      

  Number of irreducible atoms/shells =       5


  Total number atoms/shells =       5

  Dimensionality = 3               :  Bulk   



  Cartesian lattice vectors (Angstroms) :

       -2.504286    0.000000   10.443767
        1.252143   -2.168775   10.443767
        1.252143    2.168775   10.443767

  Cell parameters (Angstroms/Degrees):

  a =      10.7398    alpha =  23.3006
  b =      10.7398    beta  =  23.3006
  c =      10.7398    gamma =  23.3006

  Initial cell volume =         170.167643 Angs**3

  Temperature of configuration =  0.000     K 

  Pressure of configuration =         0.000 GPa 

  Fractional coordinates of asymmetric unit :

--------------------------------------------------------------------------------
   No.  Atomic       x           y          z         Charge      Occupancy
        Label      (Frac)      (Frac)     (Frac)        (e)         (Frac)  
--------------------------------------------------------------------------------
      1 Sb    c    0.396797    0.396797    0.396797      0.6200    1.000000    
      2 Sb    c    0.645428    0.645428    0.645428      0.6200    1.000000    
      3 Te1   c    0.000000    0.000000    0.000000     -0.5000    1.000000    
      4 Te2   c    0.784571    0.784571    0.784571     -0.3700    1.000000    
      5 Te2   c    0.215429    0.215429    0.215429     -0.3700    1.000000    
--------------------------------------------------------------------------------



********************************************************************************
*  Input for Configuration =  31                                               *
********************************************************************************

  Formula = Sb2Te3                                                      

  Number of irreducible atoms/shells =       5


  Total number atoms/shells =       5

  Dimensionality = 3               :  Bulk   



  Cartesian lattice vectors (Angstroms) :

       -2.504286    0.000000   10.443767
        1.252143   -2.168775   10.443767
        1.252143    2.168775   10.443767

  Cell parameters (Angstroms/Degrees):

  a =      10.7398    alpha =  23.3006
  b =      10.7398    beta  =  23.3006
  c =      10.7398    gamma =  23.3006

  Initial cell volume =         170.167643 Angs**3

  Temperature of configuration =  0.000     K 

  Pressure of configuration =         0.000 GPa 

  Fractional coordinates of asymmetric unit :

--------------------------------------------------------------------------------
   No.  Atomic       x           y          z         Charge      Occupancy
        Label      (Frac)      (Frac)     (Frac)        (e)         (Frac)  
--------------------------------------------------------------------------------
      1 Sb    c    0.396797    0.396797    0.396797      0.6200    1.000000    
      2 Sb    c    0.603203    0.603203    0.603203      0.6200    1.000000    
      3 Te1   c    0.930000    0.930000    0.930000     -0.5000    1.000000    
      4 Te2   c    0.784571    0.784571    0.784571     -0.3700    1.000000    
      5 Te2   c    0.215429    0.215429    0.215429     -0.3700    1.000000    
--------------------------------------------------------------------------------



********************************************************************************
*  Input for Configuration =  32                                               *
********************************************************************************

  Formula = Sb2Te3                                                      

  Number of irreducible atoms/shells =       5


  Total number atoms/shells =       5

  Dimensionality = 3               :  Bulk   



  Cartesian lattice vectors (Angstroms) :

       -2.504286    0.000000   10.443767
        1.252143   -2.168775   10.443767
        1.252143    2.168775   10.443767

  Cell parameters (Angstroms/Degrees):

  a =      10.7398    alpha =  23.3006
  b =      10.7398    beta  =  23.3006
  c =      10.7398    gamma =  23.3006

  Initial cell volume =         170.167643 Angs**3

  Temperature of configuration =  0.000     K 

  Pressure of configuration =         0.000 GPa 

  Fractional coordinates of asymmetric unit :

--------------------------------------------------------------------------------
   No.  Atomic       x           y          z         Charge      Occupancy
        Label      (Frac)      (Frac)     (Frac)        (e)         (Frac)  
--------------------------------------------------------------------------------
      1 Sb    c    0.396797    0.396797    0.396797      0.6200    1.000000    
      2 Sb    c    0.603203    0.603203    0.603203      0.6200    1.000000    
      3 Te1   c    0.940000    0.940000    0.940000     -0.5000    1.000000    
      4 Te2   c    0.784571    0.784571    0.784571     -0.3700    1.000000    
      5 Te2   c    0.215429    0.215429    0.215429     -0.3700    1.000000    
--------------------------------------------------------------------------------



********************************************************************************
*  Input for Configuration =  33                                               *
********************************************************************************

  Formula = Sb2Te3                                                      

  Number of irreducible atoms/shells =       5


  Total number atoms/shells =       5

  Dimensionality = 3               :  Bulk   



  Cartesian lattice vectors (Angstroms) :

       -2.504286    0.000000   10.443767
        1.252143   -2.168775   10.443767
        1.252143    2.168775   10.443767

  Cell parameters (Angstroms/Degrees):

  a =      10.7398    alpha =  23.3006
  b =      10.7398    beta  =  23.3006
  c =      10.7398    gamma =  23.3006

  Initial cell volume =         170.167643 Angs**3

  Temperature of configuration =  0.000     K 

  Pressure of configuration =         0.000 GPa 

  Fractional coordinates of asymmetric unit :

--------------------------------------------------------------------------------
   No.  Atomic       x           y          z         Charge      Occupancy
        Label      (Frac)      (Frac)     (Frac)        (e)         (Frac)  
--------------------------------------------------------------------------------
      1 Sb    c    0.396797    0.396797    0.396797      0.6200    1.000000    
      2 Sb    c    0.603203    0.603203    0.603203      0.6200    1.000000    
      3 Te1   c    0.950000    0.950000    0.950000     -0.5000    1.000000    
      4 Te2   c    0.784571    0.784571    0.784571     -0.3700    1.000000    
      5 Te2   c    0.215429    0.215429    0.215429     -0.3700    1.000000    
--------------------------------------------------------------------------------



********************************************************************************
*  Input for Configuration =  34                                               *
********************************************************************************

  Formula = Sb2Te3                                                      

  Number of irreducible atoms/shells =       5


  Total number atoms/shells =       5

  Dimensionality = 3               :  Bulk   



  Cartesian lattice vectors (Angstroms) :

       -2.504286    0.000000   10.443767
        1.252143   -2.168775   10.443767
        1.252143    2.168775   10.443767

  Cell parameters (Angstroms/Degrees):

  a =      10.7398    alpha =  23.3006
  b =      10.7398    beta  =  23.3006
  c =      10.7398    gamma =  23.3006

  Initial cell volume =         170.167643 Angs**3

  Temperature of configuration =  0.000     K 

  Pressure of configuration =         0.000 GPa 

  Fractional coordinates of asymmetric unit :

--------------------------------------------------------------------------------
   No.  Atomic       x           y          z         Charge      Occupancy
        Label      (Frac)      (Frac)     (Frac)        (e)         (Frac)  
--------------------------------------------------------------------------------
      1 Sb    c    0.396797    0.396797    0.396797      0.6200    1.000000    
      2 Sb    c    0.603203    0.603203    0.603203      0.6200    1.000000    
      3 Te1   c    0.960000    0.960000    0.960000     -0.5000    1.000000    
      4 Te2   c    0.784571    0.784571    0.784571     -0.3700    1.000000    
      5 Te2   c    0.215429    0.215429    0.215429     -0.3700    1.000000    
--------------------------------------------------------------------------------



********************************************************************************
*  Input for Configuration =  35                                               *
********************************************************************************

  Formula = Sb2Te3                                                      

  Number of irreducible atoms/shells =       5


  Total number atoms/shells =       5

  Dimensionality = 3               :  Bulk   



  Cartesian lattice vectors (Angstroms) :

       -2.504286    0.000000   10.443767
        1.252143   -2.168775   10.443767
        1.252143    2.168775   10.443767

  Cell parameters (Angstroms/Degrees):

  a =      10.7398    alpha =  23.3006
  b =      10.7398    beta  =  23.3006
  c =      10.7398    gamma =  23.3006

  Initial cell volume =         170.167643 Angs**3

  Temperature of configuration =  0.000     K 

  Pressure of configuration =         0.000 GPa 

  Fractional coordinates of asymmetric unit :

--------------------------------------------------------------------------------
   No.  Atomic       x           y          z         Charge      Occupancy
        Label      (Frac)      (Frac)     (Frac)        (e)         (Frac)  
--------------------------------------------------------------------------------
      1 Sb    c    0.396797    0.396797    0.396797      0.6200    1.000000    
      2 Sb    c    0.603203    0.603203    0.603203      0.6200    1.000000    
      3 Te1   c    0.970000    0.970000    0.970000     -0.5000    1.000000    
      4 Te2   c    0.784571    0.784571    0.784571     -0.3700    1.000000    
      5 Te2   c    0.215429    0.215429    0.215429     -0.3700    1.000000    
--------------------------------------------------------------------------------



********************************************************************************
*  Input for Configuration =  36                                               *
********************************************************************************

  Formula = Sb2Te3                                                      

  Number of irreducible atoms/shells =       5


  Total number atoms/shells =       5

  Dimensionality = 3               :  Bulk   



  Cartesian lattice vectors (Angstroms) :

       -2.504286    0.000000   10.443767
        1.252143   -2.168775   10.443767
        1.252143    2.168775   10.443767

  Cell parameters (Angstroms/Degrees):

  a =      10.7398    alpha =  23.3006
  b =      10.7398    beta  =  23.3006
  c =      10.7398    gamma =  23.3006

  Initial cell volume =         170.167643 Angs**3

  Temperature of configuration =  0.000     K 

  Pressure of configuration =         0.000 GPa 

  Fractional coordinates of asymmetric unit :

--------------------------------------------------------------------------------
   No.  Atomic       x           y          z         Charge      Occupancy
        Label      (Frac)      (Frac)     (Frac)        (e)         (Frac)  
--------------------------------------------------------------------------------
      1 Sb    c    0.396797    0.396797    0.396797      0.6200    1.000000    
      2 Sb    c    0.603203    0.603203    0.603203      0.6200    1.000000    
      3 Te1   c    0.980000    0.980000    0.980000     -0.5000    1.000000    
      4 Te2   c    0.784571    0.784571    0.784571     -0.3700    1.000000    
      5 Te2   c    0.215429    0.215429    0.215429     -0.3700    1.000000    
--------------------------------------------------------------------------------



********************************************************************************
*  Input for Configuration =  37                                               *
********************************************************************************

  Formula = Sb2Te3                                                      

  Number of irreducible atoms/shells =       5


  Total number atoms/shells =       5

  Dimensionality = 3               :  Bulk   



  Cartesian lattice vectors (Angstroms) :

       -2.504286    0.000000   10.443767
        1.252143   -2.168775   10.443767
        1.252143    2.168775   10.443767

  Cell parameters (Angstroms/Degrees):

  a =      10.7398    alpha =  23.3006
  b =      10.7398    beta  =  23.3006
  c =      10.7398    gamma =  23.3006

  Initial cell volume =         170.167643 Angs**3

  Temperature of configuration =  0.000     K 

  Pressure of configuration =         0.000 GPa 

  Fractional coordinates of asymmetric unit :

--------------------------------------------------------------------------------
   No.  Atomic       x           y          z         Charge      Occupancy
        Label      (Frac)      (Frac)     (Frac)        (e)         (Frac)  
--------------------------------------------------------------------------------
      1 Sb    c    0.396797    0.396797    0.396797      0.6200    1.000000    
      2 Sb    c    0.603203    0.603203    0.603203      0.6200    1.000000    
      3 Te1   c    0.990000    0.990000    0.990000     -0.5000    1.000000    
      4 Te2   c    0.784571    0.784571    0.784571     -0.3700    1.000000    
      5 Te2   c    0.215429    0.215429    0.215429     -0.3700    1.000000    
--------------------------------------------------------------------------------



********************************************************************************
*  Input for Configuration =  38                                               *
********************************************************************************

  Formula = Sb2Te3                                                      

  Number of irreducible atoms/shells =       5


  Total number atoms/shells =       5

  Dimensionality = 3               :  Bulk   



  Cartesian lattice vectors (Angstroms) :

       -2.504286    0.000000   10.443767
        1.252143   -2.168775   10.443767
        1.252143    2.168775   10.443767

  Cell parameters (Angstroms/Degrees):

  a =      10.7398    alpha =  23.3006
  b =      10.7398    beta  =  23.3006
  c =      10.7398    gamma =  23.3006

  Initial cell volume =         170.167643 Angs**3

  Temperature of configuration =  0.000     K 

  Pressure of configuration =         0.000 GPa 

  Fractional coordinates of asymmetric unit :

--------------------------------------------------------------------------------
   No.  Atomic       x           y          z         Charge      Occupancy
        Label      (Frac)      (Frac)     (Frac)        (e)         (Frac)  
--------------------------------------------------------------------------------
      1 Sb    c    0.396797    0.396797    0.396797      0.6200    1.000000    
      2 Sb    c    0.603203    0.603203    0.603203      0.6200    1.000000    
      3 Te1   c    0.000000    0.000000    0.000000     -0.5000    1.000000    
      4 Te2   c    0.784571    0.784571    0.784571     -0.3700    1.000000    
      5 Te2   c    0.215429    0.215429    0.215429     -0.3700    1.000000    
--------------------------------------------------------------------------------



********************************************************************************
*  Input for Configuration =  39                                               *
********************************************************************************

  Formula = Sb2Te3                                                      

  Number of irreducible atoms/shells =       5


  Total number atoms/shells =       5

  Dimensionality = 3               :  Bulk   



  Cartesian lattice vectors (Angstroms) :

       -2.504286    0.000000   10.443767
        1.252143   -2.168775   10.443767
        1.252143    2.168775   10.443767

  Cell parameters (Angstroms/Degrees):

  a =      10.7398    alpha =  23.3006
  b =      10.7398    beta  =  23.3006
  c =      10.7398    gamma =  23.3006

  Initial cell volume =         170.167643 Angs**3

  Temperature of configuration =  0.000     K 

  Pressure of configuration =         0.000 GPa 

  Fractional coordinates of asymmetric unit :

--------------------------------------------------------------------------------
   No.  Atomic       x           y          z         Charge      Occupancy
        Label      (Frac)      (Frac)     (Frac)        (e)         (Frac)  
--------------------------------------------------------------------------------
      1 Sb    c    0.396797    0.396797    0.396797      0.6200    1.000000    
      2 Sb    c    0.603203    0.603203    0.603203      0.6200    1.000000    
      3 Te1   c    0.010000    0.010000    0.010000     -0.5000    1.000000    
      4 Te2   c    0.784571    0.784571    0.784571     -0.3700    1.000000    
      5 Te2   c    0.215429    0.215429    0.215429     -0.3700    1.000000    
--------------------------------------------------------------------------------



********************************************************************************
*  Input for Configuration =  40                                               *
********************************************************************************

  Formula = Sb2Te3                                                      

  Number of irreducible atoms/shells =       5


  Total number atoms/shells =       5

  Dimensionality = 3               :  Bulk   



  Cartesian lattice vectors (Angstroms) :

       -2.504286    0.000000   10.443767
        1.252143   -2.168775   10.443767
        1.252143    2.168775   10.443767

  Cell parameters (Angstroms/Degrees):

  a =      10.7398    alpha =  23.3006
  b =      10.7398    beta  =  23.3006
  c =      10.7398    gamma =  23.3006

  Initial cell volume =         170.167643 Angs**3

  Temperature of configuration =  0.000     K 

  Pressure of configuration =         0.000 GPa 

  Fractional coordinates of asymmetric unit :

--------------------------------------------------------------------------------
   No.  Atomic       x           y          z         Charge      Occupancy
        Label      (Frac)      (Frac)     (Frac)        (e)         (Frac)  
--------------------------------------------------------------------------------
      1 Sb    c    0.396797    0.396797    0.396797      0.6200    1.000000    
      2 Sb    c    0.603203    0.603203    0.603203      0.6200    1.000000    
      3 Te1   c    0.020000    0.020000    0.020000     -0.5000    1.000000    
      4 Te2   c    0.784571    0.784571    0.784571     -0.3700    1.000000    
      5 Te2   c    0.215429    0.215429    0.215429     -0.3700    1.000000    
--------------------------------------------------------------------------------



********************************************************************************
*  Input for Configuration =  41                                               *
********************************************************************************

  Formula = Sb2Te3                                                      

  Number of irreducible atoms/shells =       5


  Total number atoms/shells =       5

  Dimensionality = 3               :  Bulk   



  Cartesian lattice vectors (Angstroms) :

       -2.504286    0.000000   10.443767
        1.252143   -2.168775   10.443767
        1.252143    2.168775   10.443767

  Cell parameters (Angstroms/Degrees):

  a =      10.7398    alpha =  23.3006
  b =      10.7398    beta  =  23.3006
  c =      10.7398    gamma =  23.3006

  Initial cell volume =         170.167643 Angs**3

  Temperature of configuration =  0.000     K 

  Pressure of configuration =         0.000 GPa 

  Fractional coordinates of asymmetric unit :

--------------------------------------------------------------------------------
   No.  Atomic       x           y          z         Charge      Occupancy
        Label      (Frac)      (Frac)     (Frac)        (e)         (Frac)  
--------------------------------------------------------------------------------
      1 Sb    c    0.396797    0.396797    0.396797      0.6200    1.000000    
      2 Sb    c    0.603203    0.603203    0.603203      0.6200    1.000000    
      3 Te1   c    0.030000    0.030000    0.030000     -0.5000    1.000000    
      4 Te2   c    0.784571    0.784571    0.784571     -0.3700    1.000000    
      5 Te2   c    0.215429    0.215429    0.215429     -0.3700    1.000000    
--------------------------------------------------------------------------------



********************************************************************************
*  Input for Configuration =  42                                               *
********************************************************************************

  Formula = Sb2Te3                                                      

  Number of irreducible atoms/shells =       5


  Total number atoms/shells =       5

  Dimensionality = 3               :  Bulk   



  Cartesian lattice vectors (Angstroms) :

       -2.504286    0.000000   10.443767
        1.252143   -2.168775   10.443767
        1.252143    2.168775   10.443767

  Cell parameters (Angstroms/Degrees):

  a =      10.7398    alpha =  23.3006
  b =      10.7398    beta  =  23.3006
  c =      10.7398    gamma =  23.3006

  Initial cell volume =         170.167643 Angs**3

  Temperature of configuration =  0.000     K 

  Pressure of configuration =         0.000 GPa 

  Fractional coordinates of asymmetric unit :

--------------------------------------------------------------------------------
   No.  Atomic       x           y          z         Charge      Occupancy
        Label      (Frac)      (Frac)     (Frac)        (e)         (Frac)  
--------------------------------------------------------------------------------
      1 Sb    c    0.396797    0.396797    0.396797      0.6200    1.000000    
      2 Sb    c    0.603203    0.603203    0.603203      0.6200    1.000000    
      3 Te1   c    0.040000    0.040000    0.040000     -0.5000    1.000000    
      4 Te2   c    0.784571    0.784571    0.784571     -0.3700    1.000000    
      5 Te2   c    0.215429    0.215429    0.215429     -0.3700    1.000000    
--------------------------------------------------------------------------------



********************************************************************************
*  Input for Configuration =  43                                               *
********************************************************************************

  Formula = Sb2Te3                                                      

  Number of irreducible atoms/shells =       5


  Total number atoms/shells =       5

  Dimensionality = 3               :  Bulk   



  Cartesian lattice vectors (Angstroms) :

       -2.504286    0.000000   10.443767
        1.252143   -2.168775   10.443767
        1.252143    2.168775   10.443767

  Cell parameters (Angstroms/Degrees):

  a =      10.7398    alpha =  23.3006
  b =      10.7398    beta  =  23.3006
  c =      10.7398    gamma =  23.3006

  Initial cell volume =         170.167643 Angs**3

  Temperature of configuration =  0.000     K 

  Pressure of configuration =         0.000 GPa 

  Fractional coordinates of asymmetric unit :

--------------------------------------------------------------------------------
   No.  Atomic       x           y          z         Charge      Occupancy
        Label      (Frac)      (Frac)     (Frac)        (e)         (Frac)  
--------------------------------------------------------------------------------
      1 Sb    c    0.396797    0.396797    0.396797      0.6200    1.000000    
      2 Sb    c    0.603203    0.603203    0.603203      0.6200    1.000000    
      3 Te1   c    0.050000    0.050000    0.050000     -0.5000    1.000000    
      4 Te2   c    0.784571    0.784571    0.784571     -0.3700    1.000000    
      5 Te2   c    0.215429    0.215429    0.215429     -0.3700    1.000000    
--------------------------------------------------------------------------------



********************************************************************************
*  Input for Configuration =  44                                               *
********************************************************************************

  Formula = Sb2Te3                                                      

  Number of irreducible atoms/shells =       5


  Total number atoms/shells =       5

  Dimensionality = 3               :  Bulk   



  Cartesian lattice vectors (Angstroms) :

       -2.504286    0.000000   10.443767
        1.252143   -2.168775   10.443767
        1.252143    2.168775   10.443767

  Cell parameters (Angstroms/Degrees):

  a =      10.7398    alpha =  23.3006
  b =      10.7398    beta  =  23.3006
  c =      10.7398    gamma =  23.3006

  Initial cell volume =         170.167643 Angs**3

  Temperature of configuration =  0.000     K 

  Pressure of configuration =         0.000 GPa 

  Fractional coordinates of asymmetric unit :

--------------------------------------------------------------------------------
   No.  Atomic       x           y          z         Charge      Occupancy
        Label      (Frac)      (Frac)     (Frac)        (e)         (Frac)  
--------------------------------------------------------------------------------
      1 Sb    c    0.396797    0.396797    0.396797      0.6200    1.000000    
      2 Sb    c    0.603203    0.603203    0.603203      0.6200    1.000000    
      3 Te1   c    0.060000    0.060000    0.060000     -0.5000    1.000000    
      4 Te2   c    0.784571    0.784571    0.784571     -0.3700    1.000000    
      5 Te2   c    0.215429    0.215429    0.215429     -0.3700    1.000000    
--------------------------------------------------------------------------------



********************************************************************************
*  Input for Configuration =  45                                               *
********************************************************************************

  Formula = Sb2Te3                                                      

  Number of irreducible atoms/shells =       5


  Total number atoms/shells =       5

  Dimensionality = 3               :  Bulk   



  Cartesian lattice vectors (Angstroms) :

       -2.504286    0.000000   10.443767
        1.252143   -2.168775   10.443767
        1.252143    2.168775   10.443767

[...]
  Interatomic potentials     =          -6.72024556 eV
  Monopole - monopole (real) =          -1.14711619 eV
  Monopole - monopole (recip)=          -3.50045014 eV
  Monopole - monopole (total)=          -4.64756633 eV
  Energy shift               =          -6.85141895 eV
--------------------------------------------------------------------------------
  Total lattice energy       =         -18.21923084 eV
--------------------------------------------------------------------------------
  Total lattice energy       =           -1757.8773 kJ/(mole unit cells)
--------------------------------------------------------------------------------

  Born effective charge tensors : 

-------------------------------------------------------------------------------
  Atom             x           y             z
-------------------------------------------------------------------------------
   1 Sb    x       0.6200      0.0000      0.0000
           y       0.0000      0.6200      0.0000
           z       0.0000      0.0000      0.6200
-------------------------------------------------------------------------------
   2 Sb    x       0.6200      0.0000      0.0000
           y       0.0000      0.6200      0.0000
           z       0.0000      0.0000      0.6200
-------------------------------------------------------------------------------
   3 Te1   x      -0.5000      0.0000      0.0000
           y       0.0000     -0.5000      0.0000
           z       0.0000      0.0000     -0.5000
-------------------------------------------------------------------------------
   4 Te2   x      -0.3700      0.0000      0.0000
           y       0.0000     -0.3700      0.0000
           z       0.0000      0.0000     -0.3700
-------------------------------------------------------------------------------
   5 Te2   x      -0.3700      0.0000      0.0000
           y       0.0000     -0.3700      0.0000
           z       0.0000      0.0000     -0.3700
-------------------------------------------------------------------------------




  Elastic Constant Matrix: (Units=GPa)

-------------------------------------------------------------------------------
  Indices      1         2         3         4         5         6    
-------------------------------------------------------------------------------
       1     39.7357   19.6947   26.3720   -6.1226   -1.6929   -2.8514
       2     19.6947   32.0964   19.7300    8.1709   11.6271    4.4964
       3     26.3720   19.7300   25.0085   -1.6718   -8.1083    1.4302
       4     -6.1226    8.1709   -1.6718   10.7527    2.3391   12.1667
       5     -1.6929   11.6271   -8.1083    2.3391   21.6152   -6.0114
       6     -2.8514    4.4964    1.4302   12.1667   -6.0114   15.0592
-------------------------------------------------------------------------------


  Elastic Compliance Matrix: (Units=1/GPa)

-------------------------------------------------------------------------------
  Indices      1         2         3         4         5         6    
-------------------------------------------------------------------------------
       1    0.055389 -0.049119 -0.009482 -0.072688  0.065971  0.111115
       2   -0.049119 -0.122279  0.194320  0.109657  0.113333 -0.034599
       3   -0.009482  0.194320 -0.161164 -0.038347 -0.185986 -0.087771
       4   -0.072688  0.109657 -0.038347 -0.481370  0.077916  0.377149
       5    0.065971  0.113333 -0.185986  0.077916 -0.119534 -0.114349
       6    0.111115 -0.034599 -0.087771  0.377149 -0.114349 -0.244242
-------------------------------------------------------------------------------

 Mechanical properties :

-------------------------------------------------------------------------------
  Convention :                    Reuss         Voigt         Hill
-------------------------------------------------------------------------------
  Bulk  Modulus (GPa)     =      23.04959      25.38153      24.21556
  Shear Modulus (GPa)     =      -3.75890      11.55503       3.89806
-------------------------------------------------------------------------------
  Velocity S-wave (km/s)  =      -2.47992       4.34803       2.52541
  Velocity P-wave (km/s)  =       5.43248       8.16911       6.93708
-------------------------------------------------------------------------------
  Compressibility (1/GPa) =    0.04338472
-------------------------------------------------------------------------------
  Stress axis :                     x             y             z
-------------------------------------------------------------------------------
  Youngs Moduli (GPa)     =      18.05408      -8.17803      -6.20486
-------------------------------------------------------------------------------
  Poissons Ratio (x)      =                    -0.40169      -0.05884
  Poissons Ratio (y)      =       0.88679                     1.20573
  Poissons Ratio (z)      =       0.17119       1.58916
-------------------------------------------------------------------------------


  Piezoelectric Strain Matrix: (Units=C/m**2)

-------------------------------------------------------------------------------
  Indices      1         2         3         4         5         6    
-------------------------------------------------------------------------------
       x    -0.00000  -0.00000  -0.00000   0.00000   0.00000   0.00000
       y     0.00000  -0.00000  -0.00000  -0.00000   0.00000  -0.00000
       z     0.00000  -0.00000   0.00000  -0.00000  -0.00000   0.00000
-------------------------------------------------------------------------------


  Piezoelectric Stress Matrix: (Units=10**-11 C/N)

-------------------------------------------------------------------------------
  Indices      1         2         3         4         5         6    
-------------------------------------------------------------------------------
       x     0.00000  -0.00000  -0.00000  -0.00000   0.00000   0.00000
       y     0.00000  -0.00000  -0.00000   0.00001  -0.00000  -0.00001
       z     0.00000   0.00000  -0.00000  -0.00000  -0.00000  -0.00000
-------------------------------------------------------------------------------


  Static dielectric constant tensor : 

-------------------------------------------------------------------------------
              x         y         z
-------------------------------------------------------------------------------
       x     1.08417  -0.00448  -0.00266
       y    -0.00448   1.10496  -0.00055
       z    -0.00266  -0.00055   1.10555
--------------------------------------------------------------------------------

  Static refractive indices : 

-------------------------------------------------------------------------------
    1 =    1.04064      2 =    1.05161      3 =    1.05161
-------------------------------------------------------------------------------


  Time to end of properties =     679.0264 seconds


********************************************************************************
*  Output for configuration 106                                                *
********************************************************************************


  Components of energy : 

--------------------------------------------------------------------------------
  Interatomic potentials     =          -6.72024556 eV
  Monopole - monopole (real) =          -1.14711619 eV
  Monopole - monopole (recip)=          -3.50045014 eV
  Monopole - monopole (total)=          -4.64756633 eV
  Energy shift               =          -6.85141895 eV
--------------------------------------------------------------------------------
  Total lattice energy       =         -18.21923084 eV
--------------------------------------------------------------------------------
  Total lattice energy       =           -1757.8773 kJ/(mole unit cells)
--------------------------------------------------------------------------------


  Number of variables =     18

  Maximum number of calculations  =          1000
  Maximum Hessian update interval =            10
  Maximum step size               =   1.000000000
  Maximum parameter tolerance     =   0.000010000
  Maximum function  tolerance     =   0.000010000
  Maximum gradient  tolerance     =   0.001000000
  Maximum gradient  component     =   0.010000000

  Symmetry not applied to optimisation

  Cell parameters to be optimised using strains

  Newton-Raphson optimiser to be used

  BFGS hessian update to be used

  Dumpfile to be written after every cycle

  Start of bulk optimisation :

  Cycle:      0 Energy:       -18.219231  Gnorm:      0.363415  CPU:  679.046
  ** Hessian calculated **
  Cycle:      1 Energy:       -18.358540  Gnorm:      0.582454  CPU:  679.054
  Cycle:      2 Energy:       -18.386292  Gnorm:      0.177666  CPU:  679.078
  Cycle:      3 Energy:       -18.390010  Gnorm:      0.043881  CPU:  679.102
  Cycle:      4 Energy:       -18.390306  Gnorm:      0.017867  CPU:  679.126
  Cycle:      5 Energy:       -18.390337  Gnorm:      0.022328  CPU:  679.150
  Cycle:      6 Energy:       -18.390363  Gnorm:      0.001632  CPU:  679.174


  **** Optimisation achieved ****


  Final energy =     -18.39036323 eV
  Final Gnorm  =       0.00019488

  Components of energy : 

--------------------------------------------------------------------------------
  Interatomic potentials     =          -7.02355840 eV
  Monopole - monopole (real) =          -1.07562204 eV
  Monopole - monopole (recip)=          -3.43976383 eV
  Monopole - monopole (total)=          -4.51538588 eV
  Energy shift               =          -6.85141895 eV
--------------------------------------------------------------------------------
  Total lattice energy       =         -18.39036323 eV
--------------------------------------------------------------------------------
  Total lattice energy       =           -1774.3889 kJ/(mole unit cells)
--------------------------------------------------------------------------------

  Final fractional coordinates of atoms :

--------------------------------------------------------------------------------
   No.  Atomic        x           y          z          Radius
        Label       (Frac)      (Frac)     (Frac)       (Angs) 
--------------------------------------------------------------------------------
     1  Sb    c     0.396797    0.396797    0.396797    0.000000
     2  Sb    c     0.605733    0.605733    0.605733    0.000000
     3  Te1   c     0.001265    0.001265    0.001265    0.000000
     4  Te2   c     0.788377    0.788377    0.788377    0.000000
     5  Te2   c     0.214153    0.214153    0.214153    0.000000
--------------------------------------------------------------------------------

  Final Cartesian lattice vectors (Angstroms) :

       10.935674    0.168068    0.099785
       10.110308    4.171195    0.099785
       10.110308    2.084545    3.614346


  Final cell parameters and derivatives :

--------------------------------------------------------------------------------
       a           10.937420 Angstrom     dE/de1(xx)    -0.000466 eV/strain
       b           10.937420 Angstrom     dE/de2(yy)    -0.000248 eV/strain
       c           10.937420 Angstrom     dE/de3(zz)    -0.000242 eV/strain
       alpha       21.538100 Degrees      dE/de4(yz)    -0.000006 eV/strain
       beta        21.538100 Degrees      dE/de5(xz)    -0.000028 eV/strain
       gamma       21.538100 Degrees      dE/de6(xy)    -0.000047 eV/strain
--------------------------------------------------------------------------------

  Primitive cell volume =           154.515993 Angs**3

  Density of cell =      6.730774 g/cm**3

  Non-primitive cell volume =           154.515993 Angs**3


  Final internal derivatives :

--------------------------------------------------------------------------------
   No.  Atomic          x             y             z           Radius
        Label          (eV)          (eV)          (eV)        (eV/Angs)
--------------------------------------------------------------------------------
      1 Sb    c       0.000000      0.000000      0.000000      0.000000
      2 Sb    c      -0.001085     -0.001085     -0.001085      0.000000
      3 Te1   c      -0.000000     -0.000000     -0.000000      0.000000
      4 Te2   c      -0.001185     -0.001185     -0.001185      0.000000
      5 Te2   c       0.001185      0.001185      0.001185      0.000000
--------------------------------------------------------------------------------
  Maximum abs         0.001185      0.001185      0.001185      0.000000
--------------------------------------------------------------------------------


  Born effective charge tensors : 

-------------------------------------------------------------------------------
  Atom             x           y             z
-------------------------------------------------------------------------------
   1 Sb    x       0.6200      0.0000      0.0000
           y       0.0000      0.6200      0.0000
           z       0.0000      0.0000      0.6200
-------------------------------------------------------------------------------
   2 Sb    x       0.6200      0.0000      0.0000
           y       0.0000      0.6200      0.0000
           z       0.0000      0.0000      0.6200
-------------------------------------------------------------------------------
   3 Te1   x      -0.5000      0.0000      0.0000
           y       0.0000     -0.5000      0.0000
           z       0.0000      0.0000     -0.5000
-------------------------------------------------------------------------------
   4 Te2   x      -0.3700      0.0000      0.0000
           y       0.0000     -0.3700      0.0000
           z       0.0000      0.0000     -0.3700
-------------------------------------------------------------------------------
   5 Te2   x      -0.3700      0.0000      0.0000
           y       0.0000     -0.3700      0.0000
           z       0.0000      0.0000     -0.3700
-------------------------------------------------------------------------------




  Elastic Constant Matrix: (Units=GPa)

-------------------------------------------------------------------------------
  Indices      1         2         3         4         5         6    
-------------------------------------------------------------------------------
       1    117.7810   55.7256   73.2600  -16.0778   -3.5967   -6.0580
       2     55.7256   77.1882   42.3958   22.0455   32.5407   14.7990
       3     73.2600   42.3958   57.5997   -4.0841  -19.8084    6.6461
       4    -16.0778   22.0455   -4.0841   29.3340    6.2147   32.2846
       5     -3.5967   32.5407  -19.8084    6.2147   58.1949  -16.1306
       6     -6.0580   14.7990    6.6461   32.2846  -16.1306   40.6029
-------------------------------------------------------------------------------


  Elastic Compliance Matrix: (Units=1/GPa)

-------------------------------------------------------------------------------
  Indices      1         2         3         4         5         6    
-------------------------------------------------------------------------------
       1    0.031443 -0.032578 -0.013071 -0.035772  0.036633  0.061702
       2   -0.032578 -0.055143  0.106774  0.054173  0.052612 -0.024412
       3   -0.013071  0.106774 -0.073693 -0.020154 -0.097750 -0.051613
       4   -0.035772  0.054173 -0.020154 -0.246607  0.039653  0.190055
       5    0.036633  0.052612 -0.097750  0.039653 -0.062461 -0.054054
       6    0.061702 -0.024412 -0.051613  0.190055 -0.054054 -0.121411
-------------------------------------------------------------------------------

 Mechanical properties :

-------------------------------------------------------------------------------
  Convention :                    Reuss         Voigt         Hill
-------------------------------------------------------------------------------
  Bulk  Modulus (GPa)     =      40.23087      66.14797      53.18942
  Shear Modulus (GPa)     =      -7.79016      31.03886      11.62435
-------------------------------------------------------------------------------
  Velocity S-wave (km/s)  =      -3.40205       6.79079       4.15577
  Velocity P-wave (km/s)  =       6.65880      12.63975      10.10205
-------------------------------------------------------------------------------
  Compressibility (1/GPa) =    0.02485654
-------------------------------------------------------------------------------
  Stress axis :                     x             y             z
-------------------------------------------------------------------------------
  Youngs Moduli (GPa)     =      31.80314     -18.13477     -13.56982
-------------------------------------------------------------------------------
  Poissons Ratio (x)      =                    -0.59079      -0.17738
  Poissons Ratio (y)      =       1.03608                     1.44890
  Poissons Ratio (z)      =       0.41571       1.93631
-------------------------------------------------------------------------------


  Piezoelectric Strain Matrix: (Units=C/m**2)

-------------------------------------------------------------------------------
  Indices      1         2         3         4         5         6    
-------------------------------------------------------------------------------
       x     0.00000   0.00000   0.00000  -0.00000  -0.00000  -0.00000
       y    -0.00000   0.00000   0.00000   0.00000  -0.00000   0.00000
       z    -0.00000   0.00000  -0.00000   0.00000   0.00000  -0.00000
-------------------------------------------------------------------------------


  Piezoelectric Stress Matrix: (Units=10**-11 C/N)

-------------------------------------------------------------------------------
  Indices      1         2         3         4         5         6    
-------------------------------------------------------------------------------
       x    -0.00000   0.00000   0.00000   0.00000  -0.00000  -0.00000
       y    -0.00000   0.00000   0.00000  -0.00000   0.00000   0.00000
       z    -0.00000  -0.00000   0.00000   0.00000   0.00000   0.00000
-------------------------------------------------------------------------------


  Static dielectric constant tensor : 

-------------------------------------------------------------------------------
              x         y         z
-------------------------------------------------------------------------------
       x     1.06021  -0.00592  -0.00352
       y    -0.00592   1.08771  -0.00072
       z    -0.00352  -0.00072   1.08850
--------------------------------------------------------------------------------

  Static refractive indices : 

-------------------------------------------------------------------------------
    1 =    1.02886      2 =    1.04352      3 =    1.04352
-------------------------------------------------------------------------------


  Time to end of optimisation =     679.2064 seconds


  Peak dynamic memory used =       1.38 MB 


  Timing analysis for GULP :

--------------------------------------------------------------------------------
  Task / Subroutine                                          Time (Seconds)
--------------------------------------------------------------------------------
  Calculation of reciprocal space energy and derivatives         38.0424
  Calculation of real space energy and derivatives              621.6789
  Sum of squares for fitting                                     14.6089
  Global summation overhead                                       0.5800
--------------------------------------------------------------------------------
  Total CPU time                                                679.2064
--------------------------------------------------------------------------------


  Dump file written as sb2te3.res                                              



  **** GULP has completed with 105 warnings - beware! ****

  Job Finished at 12:31.39 11th June       2010                               

