********************************************************************************
*                       GENERAL UTILITY LATTICE PROGRAM                        *
*                                 Julian Gale                                  *
*                      Nanochemistry Research Institute                        *
*             Curtin University of Technology, Western Australia               *
********************************************************************************
* Version = 3.4.7 * Last modified =  21st July 2009                            *
********************************************************************************
*  fit          - perform fitting run                                          *
*  optimise     - perform optimisation run after fitting                       *
*  property     - calculate properties for final geometry                      *
*  fbfgs        - use full numerical Hessian in BFGS for fitting               *
********************************************************************************

  Job Started  at 12:47.57 22nd June       2010                               

  Number of CPUs =     1


  Total number of configurations input = 133

********************************************************************************
*  Input for Configuration =   1                                               *
********************************************************************************

  Formula = Sb2Te3                                                      

  Number of irreducible atoms/shells =       5


  Total number atoms/shells =       5

  Dimensionality = 3               :  Bulk   



  Cartesian lattice vectors (Angstroms) :

       -2.504286    0.000000   10.443767
        1.252143   -2.168775   10.443767
        1.252143    2.168775   10.443767

  Cell parameters (Angstroms/Degrees):

  a =      10.7398    alpha =  23.3006
  b =      10.7398    beta  =  23.3006
  c =      10.7398    gamma =  23.3006

  Initial cell volume =         170.167643 Angs**3

  Temperature of configuration =  0.000     K 

  Pressure of configuration =         0.000 GPa 

  Fractional coordinates of asymmetric unit :

--------------------------------------------------------------------------------
   No.  Atomic       x           y          z         Charge      Occupancy
        Label      (Frac)      (Frac)     (Frac)        (e)         (Frac)  
--------------------------------------------------------------------------------
      1 Sb    c    0.369021    0.369021    0.369021      0.1090    1.000000    
      2 Sb    c    0.603203    0.603203    0.603203      0.1090    1.000000    
      3 Te1   c    0.000000    0.000000    0.000000      0.1600    1.000000    
      4 Te2   c    0.784571    0.784571    0.784571     -0.1890    1.000000    
      5 Te2   c    0.215429    0.215429    0.215429     -0.1890    1.000000    
--------------------------------------------------------------------------------



********************************************************************************
*  Input for Configuration =   2                                               *
********************************************************************************

  Formula = Sb2Te3                                                      

  Number of irreducible atoms/shells =       5


  Total number atoms/shells =       5

  Dimensionality = 3               :  Bulk   



  Cartesian lattice vectors (Angstroms) :

       -2.504286    0.000000   10.443767
        1.252143   -2.168775   10.443767
        1.252143    2.168775   10.443767

  Cell parameters (Angstroms/Degrees):

  a =      10.7398    alpha =  23.3006
  b =      10.7398    beta  =  23.3006
  c =      10.7398    gamma =  23.3006

  Initial cell volume =         170.167643 Angs**3

  Temperature of configuration =  0.000     K 

  Pressure of configuration =         0.000 GPa 

  Fractional coordinates of asymmetric unit :

--------------------------------------------------------------------------------
   No.  Atomic       x           y          z         Charge      Occupancy
        Label      (Frac)      (Frac)     (Frac)        (e)         (Frac)  
--------------------------------------------------------------------------------
      1 Sb    c    0.372989    0.372989    0.372989      0.1090    1.000000    
      2 Sb    c    0.603203    0.603203    0.603203      0.1090    1.000000    
      3 Te1   c    0.000000    0.000000    0.000000      0.1600    1.000000    
      4 Te2   c    0.784571    0.784571    0.784571     -0.1890    1.000000    
      5 Te2   c    0.215429    0.215429    0.215429     -0.1890    1.000000    
--------------------------------------------------------------------------------



********************************************************************************
*  Input for Configuration =   3                                               *
********************************************************************************

  Formula = Sb2Te3                                                      

  Number of irreducible atoms/shells =       5


  Total number atoms/shells =       5

  Dimensionality = 3               :  Bulk   



  Cartesian lattice vectors (Angstroms) :

       -2.504286    0.000000   10.443767
        1.252143   -2.168775   10.443767
        1.252143    2.168775   10.443767

  Cell parameters (Angstroms/Degrees):

  a =      10.7398    alpha =  23.3006
  b =      10.7398    beta  =  23.3006
  c =      10.7398    gamma =  23.3006

  Initial cell volume =         170.167643 Angs**3

  Temperature of configuration =  0.000     K 

  Pressure of configuration =         0.000 GPa 

  Fractional coordinates of asymmetric unit :

--------------------------------------------------------------------------------
   No.  Atomic       x           y          z         Charge      Occupancy
        Label      (Frac)      (Frac)     (Frac)        (e)         (Frac)  
--------------------------------------------------------------------------------
      1 Sb    c    0.376957    0.376957    0.376957      0.1090    1.000000    
      2 Sb    c    0.603203    0.603203    0.603203      0.1090    1.000000    
      3 Te1   c    0.000000    0.000000    0.000000      0.1600    1.000000    
      4 Te2   c    0.784571    0.784571    0.784571     -0.1890    1.000000    
      5 Te2   c    0.215429    0.215429    0.215429     -0.1890    1.000000    
--------------------------------------------------------------------------------



********************************************************************************
*  Input for Configuration =   4                                               *
********************************************************************************

  Formula = Sb2Te3                                                      

  Number of irreducible atoms/shells =       5


  Total number atoms/shells =       5

  Dimensionality = 3               :  Bulk   



  Cartesian lattice vectors (Angstroms) :

       -2.504286    0.000000   10.443767
        1.252143   -2.168775   10.443767
        1.252143    2.168775   10.443767

  Cell parameters (Angstroms/Degrees):

  a =      10.7398    alpha =  23.3006
  b =      10.7398    beta  =  23.3006
  c =      10.7398    gamma =  23.3006

  Initial cell volume =         170.167643 Angs**3

  Temperature of configuration =  0.000     K 

  Pressure of configuration =         0.000 GPa 

  Fractional coordinates of asymmetric unit :

--------------------------------------------------------------------------------
   No.  Atomic       x           y          z         Charge      Occupancy
        Label      (Frac)      (Frac)     (Frac)        (e)         (Frac)  
--------------------------------------------------------------------------------
      1 Sb    c    0.380925    0.380925    0.380925      0.1090    1.000000    
      2 Sb    c    0.603203    0.603203    0.603203      0.1090    1.000000    
      3 Te1   c    0.000000    0.000000    0.000000      0.1600    1.000000    
      4 Te2   c    0.784571    0.784571    0.784571     -0.1890    1.000000    
      5 Te2   c    0.215429    0.215429    0.215429     -0.1890    1.000000    
--------------------------------------------------------------------------------



********************************************************************************
*  Input for Configuration =   5                                               *
********************************************************************************

  Formula = Sb2Te3                                                      

  Number of irreducible atoms/shells =       5


  Total number atoms/shells =       5

  Dimensionality = 3               :  Bulk   



  Cartesian lattice vectors (Angstroms) :

       -2.504286    0.000000   10.443767
        1.252143   -2.168775   10.443767
        1.252143    2.168775   10.443767

  Cell parameters (Angstroms/Degrees):

  a =      10.7398    alpha =  23.3006
  b =      10.7398    beta  =  23.3006
  c =      10.7398    gamma =  23.3006

  Initial cell volume =         170.167643 Angs**3

  Temperature of configuration =  0.000     K 

  Pressure of configuration =         0.000 GPa 

  Fractional coordinates of asymmetric unit :

--------------------------------------------------------------------------------
   No.  Atomic       x           y          z         Charge      Occupancy
        Label      (Frac)      (Frac)     (Frac)        (e)         (Frac)  
--------------------------------------------------------------------------------
      1 Sb    c    0.384893    0.384893    0.384893      0.1090    1.000000    
      2 Sb    c    0.603203    0.603203    0.603203      0.1090    1.000000    
      3 Te1   c    0.000000    0.000000    0.000000      0.1600    1.000000    
      4 Te2   c    0.784571    0.784571    0.784571     -0.1890    1.000000    
      5 Te2   c    0.215429    0.215429    0.215429     -0.1890    1.000000    
--------------------------------------------------------------------------------



********************************************************************************
*  Input for Configuration =   6                                               *
********************************************************************************

  Formula = Sb2Te3                                                      

  Number of irreducible atoms/shells =       5


  Total number atoms/shells =       5

  Dimensionality = 3               :  Bulk   



  Cartesian lattice vectors (Angstroms) :

       -2.504286    0.000000   10.443767
        1.252143   -2.168775   10.443767
        1.252143    2.168775   10.443767

  Cell parameters (Angstroms/Degrees):

  a =      10.7398    alpha =  23.3006
  b =      10.7398    beta  =  23.3006
  c =      10.7398    gamma =  23.3006

  Initial cell volume =         170.167643 Angs**3

  Temperature of configuration =  0.000     K 

  Pressure of configuration =         0.000 GPa 

  Fractional coordinates of asymmetric unit :

--------------------------------------------------------------------------------
   No.  Atomic       x           y          z         Charge      Occupancy
        Label      (Frac)      (Frac)     (Frac)        (e)         (Frac)  
--------------------------------------------------------------------------------
      1 Sb    c    0.388861    0.388861    0.388861      0.1090    1.000000    
      2 Sb    c    0.603203    0.603203    0.603203      0.1090    1.000000    
      3 Te1   c    0.000000    0.000000    0.000000      0.1600    1.000000    
      4 Te2   c    0.784571    0.784571    0.784571     -0.1890    1.000000    
      5 Te2   c    0.215429    0.215429    0.215429     -0.1890    1.000000    
--------------------------------------------------------------------------------



********************************************************************************
*  Input for Configuration =   7                                               *
********************************************************************************

  Formula = Sb2Te3                                                      

  Number of irreducible atoms/shells =       5


  Total number atoms/shells =       5

  Dimensionality = 3               :  Bulk   



  Cartesian lattice vectors (Angstroms) :

       -2.504286    0.000000   10.443767
        1.252143   -2.168775   10.443767
        1.252143    2.168775   10.443767

  Cell parameters (Angstroms/Degrees):

  a =      10.7398    alpha =  23.3006
  b =      10.7398    beta  =  23.3006
  c =      10.7398    gamma =  23.3006

  Initial cell volume =         170.167643 Angs**3

  Temperature of configuration =  0.000     K 

  Pressure of configuration =         0.000 GPa 

  Fractional coordinates of asymmetric unit :

--------------------------------------------------------------------------------
   No.  Atomic       x           y          z         Charge      Occupancy
        Label      (Frac)      (Frac)     (Frac)        (e)         (Frac)  
--------------------------------------------------------------------------------
      1 Sb    c    0.392829    0.392829    0.392829      0.1090    1.000000    
      2 Sb    c    0.603203    0.603203    0.603203      0.1090    1.000000    
      3 Te1   c    0.000000    0.000000    0.000000      0.1600    1.000000    
      4 Te2   c    0.784571    0.784571    0.784571     -0.1890    1.000000    
      5 Te2   c    0.215429    0.215429    0.215429     -0.1890    1.000000    
--------------------------------------------------------------------------------



********************************************************************************
*  Input for Configuration =   8                                               *
********************************************************************************

  Formula = Sb2Te3                                                      

  Number of irreducible atoms/shells =       5


  Total number atoms/shells =       5

  Dimensionality = 3               :  Bulk   



  Cartesian lattice vectors (Angstroms) :

       -2.504286    0.000000   10.443767
        1.252143   -2.168775   10.443767
        1.252143    2.168775   10.443767

  Cell parameters (Angstroms/Degrees):

  a =      10.7398    alpha =  23.3006
  b =      10.7398    beta  =  23.3006
  c =      10.7398    gamma =  23.3006

  Initial cell volume =         170.167643 Angs**3

  Temperature of configuration =  0.000     K 

  Pressure of configuration =         0.000 GPa 

  Fractional coordinates of asymmetric unit :

--------------------------------------------------------------------------------
   No.  Atomic       x           y          z         Charge      Occupancy
        Label      (Frac)      (Frac)     (Frac)        (e)         (Frac)  
--------------------------------------------------------------------------------
      1 Sb    c    0.396797    0.396797    0.396797      0.1090    1.000000    
      2 Sb    c    0.603203    0.603203    0.603203      0.1090    1.000000    
      3 Te1   c    0.000000    0.000000    0.000000      0.1600    1.000000    
      4 Te2   c    0.784571    0.784571    0.784571     -0.1890    1.000000    
      5 Te2   c    0.215429    0.215429    0.215429     -0.1890    1.000000    
--------------------------------------------------------------------------------



********************************************************************************
*  Input for Configuration =   9                                               *
********************************************************************************

  Formula = Sb2Te3                                                      

  Number of irreducible atoms/shells =       5


  Total number atoms/shells =       5

  Dimensionality = 3               :  Bulk   



  Cartesian lattice vectors (Angstroms) :

       -2.504286    0.000000   10.443767
        1.252143   -2.168775   10.443767
        1.252143    2.168775   10.443767

  Cell parameters (Angstroms/Degrees):

  a =      10.7398    alpha =  23.3006
  b =      10.7398    beta  =  23.3006
  c =      10.7398    gamma =  23.3006

  Initial cell volume =         170.167643 Angs**3

  Temperature of configuration =  0.000     K 

  Pressure of configuration =         0.000 GPa 

  Fractional coordinates of asymmetric unit :

--------------------------------------------------------------------------------
   No.  Atomic       x           y          z         Charge      Occupancy
        Label      (Frac)      (Frac)     (Frac)        (e)         (Frac)  
--------------------------------------------------------------------------------
      1 Sb    c    0.400765    0.400765    0.400765      0.1090    1.000000    
      2 Sb    c    0.603203    0.603203    0.603203      0.1090    1.000000    
      3 Te1   c    0.000000    0.000000    0.000000      0.1600    1.000000    
      4 Te2   c    0.784571    0.784571    0.784571     -0.1890    1.000000    
      5 Te2   c    0.215429    0.215429    0.215429     -0.1890    1.000000    
--------------------------------------------------------------------------------



********************************************************************************
*  Input for Configuration =  10                                               *
********************************************************************************

  Formula = Sb2Te3                                                      

  Number of irreducible atoms/shells =       5


  Total number atoms/shells =       5

  Dimensionality = 3               :  Bulk   



  Cartesian lattice vectors (Angstroms) :

       -2.504286    0.000000   10.443767
        1.252143   -2.168775   10.443767
        1.252143    2.168775   10.443767

  Cell parameters (Angstroms/Degrees):

  a =      10.7398    alpha =  23.3006
  b =      10.7398    beta  =  23.3006
  c =      10.7398    gamma =  23.3006

  Initial cell volume =         170.167643 Angs**3

  Temperature of configuration =  0.000     K 

  Pressure of configuration =         0.000 GPa 

  Fractional coordinates of asymmetric unit :

--------------------------------------------------------------------------------
   No.  Atomic       x           y          z         Charge      Occupancy
        Label      (Frac)      (Frac)     (Frac)        (e)         (Frac)  
--------------------------------------------------------------------------------
      1 Sb    c    0.404733    0.404733    0.404733      0.1090    1.000000    
      2 Sb    c    0.603203    0.603203    0.603203      0.1090    1.000000    
      3 Te1   c    0.000000    0.000000    0.000000      0.1600    1.000000    
      4 Te2   c    0.784571    0.784571    0.784571     -0.1890    1.000000    
      5 Te2   c    0.215429    0.215429    0.215429     -0.1890    1.000000    
--------------------------------------------------------------------------------



********************************************************************************
*  Input for Configuration =  11                                               *
********************************************************************************

  Formula = Sb2Te3                                                      

  Number of irreducible atoms/shells =       5


  Total number atoms/shells =       5

  Dimensionality = 3               :  Bulk   



  Cartesian lattice vectors (Angstroms) :

       -2.504286    0.000000   10.443767
        1.252143   -2.168775   10.443767
        1.252143    2.168775   10.443767

  Cell parameters (Angstroms/Degrees):

  a =      10.7398    alpha =  23.3006
  b =      10.7398    beta  =  23.3006
  c =      10.7398    gamma =  23.3006

  Initial cell volume =         170.167643 Angs**3

  Temperature of configuration =  0.000     K 

  Pressure of configuration =         0.000 GPa 

  Fractional coordinates of asymmetric unit :

--------------------------------------------------------------------------------
   No.  Atomic       x           y          z         Charge      Occupancy
        Label      (Frac)      (Frac)     (Frac)        (e)         (Frac)  
--------------------------------------------------------------------------------
      1 Sb    c    0.408700    0.408700    0.408700      0.1090    1.000000    
      2 Sb    c    0.603203    0.603203    0.603203      0.1090    1.000000    
      3 Te1   c    0.000000    0.000000    0.000000      0.1600    1.000000    
      4 Te2   c    0.784571    0.784571    0.784571     -0.1890    1.000000    
      5 Te2   c    0.215429    0.215429    0.215429     -0.1890    1.000000    
--------------------------------------------------------------------------------



********************************************************************************
*  Input for Configuration =  12                                               *
********************************************************************************

  Formula = Sb2Te3                                                      

  Number of irreducible atoms/shells =       5


  Total number atoms/shells =       5

  Dimensionality = 3               :  Bulk   



  Cartesian lattice vectors (Angstroms) :

       -2.504286    0.000000   10.443767
        1.252143   -2.168775   10.443767
        1.252143    2.168775   10.443767

  Cell parameters (Angstroms/Degrees):

  a =      10.7398    alpha =  23.3006
  b =      10.7398    beta  =  23.3006
  c =      10.7398    gamma =  23.3006

  Initial cell volume =         170.167643 Angs**3

  Temperature of configuration =  0.000     K 

  Pressure of configuration =         0.000 GPa 

  Fractional coordinates of asymmetric unit :

--------------------------------------------------------------------------------
   No.  Atomic       x           y          z         Charge      Occupancy
        Label      (Frac)      (Frac)     (Frac)        (e)         (Frac)  
--------------------------------------------------------------------------------
      1 Sb    c    0.412668    0.412668    0.412668      0.1090    1.000000    
      2 Sb    c    0.603203    0.603203    0.603203      0.1090    1.000000    
      3 Te1   c    0.000000    0.000000    0.000000      0.1600    1.000000    
      4 Te2   c    0.784571    0.784571    0.784571     -0.1890    1.000000    
      5 Te2   c    0.215429    0.215429    0.215429     -0.1890    1.000000    
--------------------------------------------------------------------------------



********************************************************************************
*  Input for Configuration =  13                                               *
********************************************************************************

  Formula = Sb2Te3                                                      

  Number of irreducible atoms/shells =       5


  Total number atoms/shells =       5

  Dimensionality = 3               :  Bulk   



  Cartesian lattice vectors (Angstroms) :

       -2.504286    0.000000   10.443767
        1.252143   -2.168775   10.443767
        1.252143    2.168775   10.443767

  Cell parameters (Angstroms/Degrees):

  a =      10.7398    alpha =  23.3006
  b =      10.7398    beta  =  23.3006
  c =      10.7398    gamma =  23.3006

  Initial cell volume =         170.167643 Angs**3

  Temperature of configuration =  0.000     K 

  Pressure of configuration =         0.000 GPa 

  Fractional coordinates of asymmetric unit :

--------------------------------------------------------------------------------
   No.  Atomic       x           y          z         Charge      Occupancy
        Label      (Frac)      (Frac)     (Frac)        (e)         (Frac)  
--------------------------------------------------------------------------------
      1 Sb    c    0.416636    0.416636    0.416636      0.1090    1.000000    
      2 Sb    c    0.603203    0.603203    0.603203      0.1090    1.000000    
      3 Te1   c    0.000000    0.000000    0.000000      0.1600    1.000000    
      4 Te2   c    0.784571    0.784571    0.784571     -0.1890    1.000000    
      5 Te2   c    0.215429    0.215429    0.215429     -0.1890    1.000000    
--------------------------------------------------------------------------------



********************************************************************************
*  Input for Configuration =  14                                               *
********************************************************************************

  Formula = Sb2Te3                                                      

  Number of irreducible atoms/shells =       5


  Total number atoms/shells =       5

  Dimensionality = 3               :  Bulk   



  Cartesian lattice vectors (Angstroms) :

       -2.504286    0.000000   10.443767
        1.252143   -2.168775   10.443767
        1.252143    2.168775   10.443767

  Cell parameters (Angstroms/Degrees):

  a =      10.7398    alpha =  23.3006
  b =      10.7398    beta  =  23.3006
  c =      10.7398    gamma =  23.3006

  Initial cell volume =         170.167643 Angs**3

  Temperature of configuration =  0.000     K 

  Pressure of configuration =         0.000 GPa 

  Fractional coordinates of asymmetric unit :

--------------------------------------------------------------------------------
   No.  Atomic       x           y          z         Charge      Occupancy
        Label      (Frac)      (Frac)     (Frac)        (e)         (Frac)  
--------------------------------------------------------------------------------
      1 Sb    c    0.420604    0.420604    0.420604      0.1090    1.000000    
      2 Sb    c    0.603203    0.603203    0.603203      0.1090    1.000000    
      3 Te1   c    0.000000    0.000000    0.000000      0.1600    1.000000    
      4 Te2   c    0.784571    0.784571    0.784571     -0.1890    1.000000    
      5 Te2   c    0.215429    0.215429    0.215429     -0.1890    1.000000    
--------------------------------------------------------------------------------



********************************************************************************
*  Input for Configuration =  15                                               *
********************************************************************************

  Formula = Sb2Te3                                                      

  Number of irreducible atoms/shells =       5


  Total number atoms/shells =       5

  Dimensionality = 3               :  Bulk   



  Cartesian lattice vectors (Angstroms) :

       -2.504286    0.000000   10.443767
        1.252143   -2.168775   10.443767
        1.252143    2.168775   10.443767

  Cell parameters (Angstroms/Degrees):

  a =      10.7398    alpha =  23.3006
  b =      10.7398    beta  =  23.3006
  c =      10.7398    gamma =  23.3006

  Initial cell volume =         170.167643 Angs**3

  Temperature of configuration =  0.000     K 

  Pressure of configuration =         0.000 GPa 

  Fractional coordinates of asymmetric unit :

--------------------------------------------------------------------------------
   No.  Atomic       x           y          z         Charge      Occupancy
        Label      (Frac)      (Frac)     (Frac)        (e)         (Frac)  
--------------------------------------------------------------------------------
      1 Sb    c    0.424572    0.424572    0.424572      0.1090    1.000000    
      2 Sb    c    0.603203    0.603203    0.603203      0.1090    1.000000    
      3 Te1   c    0.000000    0.000000    0.000000      0.1600    1.000000    
      4 Te2   c    0.784571    0.784571    0.784571     -0.1890    1.000000    
      5 Te2   c    0.215429    0.215429    0.215429     -0.1890    1.000000    
--------------------------------------------------------------------------------



********************************************************************************
*  Input for Configuration =  16                                               *
********************************************************************************

  Formula = Sb2Te3                                                      

  Number of irreducible atoms/shells =       5


  Total number atoms/shells =       5

  Dimensionality = 3               :  Bulk   



  Cartesian lattice vectors (Angstroms) :

       -2.504286    0.000000   10.443767
        1.252143   -2.168775   10.443767
        1.252143    2.168775   10.443767

  Cell parameters (Angstroms/Degrees):

  a =      10.7398    alpha =  23.3006
  b =      10.7398    beta  =  23.3006
  c =      10.7398    gamma =  23.3006

  Initial cell volume =         170.167643 Angs**3

  Temperature of configuration =  0.000     K 

  Pressure of configuration =         0.000 GPa 

  Fractional coordinates of asymmetric unit :

--------------------------------------------------------------------------------
   No.  Atomic       x           y          z         Charge      Occupancy
        Label      (Frac)      (Frac)     (Frac)        (e)         (Frac)  
--------------------------------------------------------------------------------
      1 Sb    c    0.396797    0.396797    0.396797      0.1090    1.000000    
      2 Sb    c    0.560979    0.560979    0.560979      0.1090    1.000000    
      3 Te1   c    0.000000    0.000000    0.000000      0.1600    1.000000    
      4 Te2   c    0.784571    0.784571    0.784571     -0.1890    1.000000    
      5 Te2   c    0.215429    0.215429    0.215429     -0.1890    1.000000    
--------------------------------------------------------------------------------



********************************************************************************
*  Input for Configuration =  17                                               *
********************************************************************************

  Formula = Sb2Te3                                                      

  Number of irreducible atoms/shells =       5


  Total number atoms/shells =       5

  Dimensionality = 3               :  Bulk   



  Cartesian lattice vectors (Angstroms) :

       -2.504286    0.000000   10.443767
        1.252143   -2.168775   10.443767
        1.252143    2.168775   10.443767

  Cell parameters (Angstroms/Degrees):

  a =      10.7398    alpha =  23.3006
  b =      10.7398    beta  =  23.3006
  c =      10.7398    gamma =  23.3006

  Initial cell volume =         170.167643 Angs**3

  Temperature of configuration =  0.000     K 

  Pressure of configuration =         0.000 GPa 

  Fractional coordinates of asymmetric unit :

--------------------------------------------------------------------------------
   No.  Atomic       x           y          z         Charge      Occupancy
        Label      (Frac)      (Frac)     (Frac)        (e)         (Frac)  
--------------------------------------------------------------------------------
      1 Sb    c    0.396797    0.396797    0.396797      0.1090    1.000000    
      2 Sb    c    0.567011    0.567011    0.567011      0.1090    1.000000    
      3 Te1   c    0.000000    0.000000    0.000000      0.1600    1.000000    
      4 Te2   c    0.784571    0.784571    0.784571     -0.1890    1.000000    
      5 Te2   c    0.215429    0.215429    0.215429     -0.1890    1.000000    
--------------------------------------------------------------------------------



********************************************************************************
*  Input for Configuration =  18                                               *
********************************************************************************

  Formula = Sb2Te3                                                      

  Number of irreducible atoms/shells =       5


  Total number atoms/shells =       5

  Dimensionality = 3               :  Bulk   



  Cartesian lattice vectors (Angstroms) :

       -2.504286    0.000000   10.443767
        1.252143   -2.168775   10.443767
        1.252143    2.168775   10.443767

  Cell parameters (Angstroms/Degrees):

  a =      10.7398    alpha =  23.3006
  b =      10.7398    beta  =  23.3006
  c =      10.7398    gamma =  23.3006

  Initial cell volume =         170.167643 Angs**3

  Temperature of configuration =  0.000     K 

  Pressure of configuration =         0.000 GPa 

  Fractional coordinates of asymmetric unit :

--------------------------------------------------------------------------------
   No.  Atomic       x           y          z         Charge      Occupancy
        Label      (Frac)      (Frac)     (Frac)        (e)         (Frac)  
--------------------------------------------------------------------------------
      1 Sb    c    0.396797    0.396797    0.396797      0.1090    1.000000    
      2 Sb    c    0.573043    0.573043    0.573043      0.1090    1.000000    
      3 Te1   c    0.000000    0.000000    0.000000      0.1600    1.000000    
      4 Te2   c    0.784571    0.784571    0.784571     -0.1890    1.000000    
      5 Te2   c    0.215429    0.215429    0.215429     -0.1890    1.000000    
--------------------------------------------------------------------------------



********************************************************************************
*  Input for Configuration =  19                                               *
********************************************************************************

  Formula = Sb2Te3                                                      

  Number of irreducible atoms/shells =       5


  Total number atoms/shells =       5

  Dimensionality = 3               :  Bulk   



  Cartesian lattice vectors (Angstroms) :

       -2.504286    0.000000   10.443767
        1.252143   -2.168775   10.443767
        1.252143    2.168775   10.443767

  Cell parameters (Angstroms/Degrees):

  a =      10.7398    alpha =  23.3006
  b =      10.7398    beta  =  23.3006
  c =      10.7398    gamma =  23.3006

  Initial cell volume =         170.167643 Angs**3

  Temperature of configuration =  0.000     K 

  Pressure of configuration =         0.000 GPa 

  Fractional coordinates of asymmetric unit :

--------------------------------------------------------------------------------
   No.  Atomic       x           y          z         Charge      Occupancy
        Label      (Frac)      (Frac)     (Frac)        (e)         (Frac)  
--------------------------------------------------------------------------------
      1 Sb    c    0.396797    0.396797    0.396797      0.1090    1.000000    
      2 Sb    c    0.579075    0.579075    0.579075      0.1090    1.000000    
      3 Te1   c    0.000000    0.000000    0.000000      0.1600    1.000000    
      4 Te2   c    0.784571    0.784571    0.784571     -0.1890    1.000000    
      5 Te2   c    0.215429    0.215429    0.215429     -0.1890    1.000000    
--------------------------------------------------------------------------------



********************************************************************************
*  Input for Configuration =  20                                               *
********************************************************************************

  Formula = Sb2Te3                                                      

  Number of irreducible atoms/shells =       5


  Total number atoms/shells =       5

  Dimensionality = 3               :  Bulk   



  Cartesian lattice vectors (Angstroms) :

       -2.504286    0.000000   10.443767
        1.252143   -2.168775   10.443767
        1.252143    2.168775   10.443767

  Cell parameters (Angstroms/Degrees):

  a =      10.7398    alpha =  23.3006
  b =      10.7398    beta  =  23.3006
  c =      10.7398    gamma =  23.3006

  Initial cell volume =         170.167643 Angs**3

  Temperature of configuration =  0.000     K 

  Pressure of configuration =         0.000 GPa 

  Fractional coordinates of asymmetric unit :

--------------------------------------------------------------------------------
   No.  Atomic       x           y          z         Charge      Occupancy
        Label      (Frac)      (Frac)     (Frac)        (e)         (Frac)  
--------------------------------------------------------------------------------
      1 Sb    c    0.396797    0.396797    0.396797      0.1090    1.000000    
      2 Sb    c    0.585107    0.585107    0.585107      0.1090    1.000000    
      3 Te1   c    0.000000    0.000000    0.000000      0.1600    1.000000    
      4 Te2   c    0.784571    0.784571    0.784571     -0.1890    1.000000    
      5 Te2   c    0.215429    0.215429    0.215429     -0.1890    1.000000    
--------------------------------------------------------------------------------



********************************************************************************
*  Input for Configuration =  21                                               *
********************************************************************************

  Formula = Sb2Te3                                                      

  Number of irreducible atoms/shells =       5


  Total number atoms/shells =       5

  Dimensionality = 3               :  Bulk   



  Cartesian lattice vectors (Angstroms) :

       -2.504286    0.000000   10.443767
        1.252143   -2.168775   10.443767
        1.252143    2.168775   10.443767

  Cell parameters (Angstroms/Degrees):

  a =      10.7398    alpha =  23.3006
  b =      10.7398    beta  =  23.3006
  c =      10.7398    gamma =  23.3006

  Initial cell volume =         170.167643 Angs**3

  Temperature of configuration =  0.000     K 

  Pressure of configuration =         0.000 GPa 

  Fractional coordinates of asymmetric unit :

--------------------------------------------------------------------------------
   No.  Atomic       x           y          z         Charge      Occupancy
        Label      (Frac)      (Frac)     (Frac)        (e)         (Frac)  
--------------------------------------------------------------------------------
      1 Sb    c    0.396797    0.396797    0.396797      0.1090    1.000000    
      2 Sb    c    0.591139    0.591139    0.591139      0.1090    1.000000    
      3 Te1   c    0.000000    0.000000    0.000000      0.1600    1.000000    
      4 Te2   c    0.784571    0.784571    0.784571     -0.1890    1.000000    
      5 Te2   c    0.215429    0.215429    0.215429     -0.1890    1.000000    
--------------------------------------------------------------------------------



********************************************************************************
*  Input for Configuration =  22                                               *
********************************************************************************

  Formula = Sb2Te3                                                      

  Number of irreducible atoms/shells =       5


  Total number atoms/shells =       5

  Dimensionality = 3               :  Bulk   



  Cartesian lattice vectors (Angstroms) :

       -2.504286    0.000000   10.443767
        1.252143   -2.168775   10.443767
        1.252143    2.168775   10.443767

  Cell parameters (Angstroms/Degrees):

  a =      10.7398    alpha =  23.3006
  b =      10.7398    beta  =  23.3006
  c =      10.7398    gamma =  23.3006

  Initial cell volume =         170.167643 Angs**3

  Temperature of configuration =  0.000     K 

  Pressure of configuration =         0.000 GPa 

  Fractional coordinates of asymmetric unit :

--------------------------------------------------------------------------------
   No.  Atomic       x           y          z         Charge      Occupancy
        Label      (Frac)      (Frac)     (Frac)        (e)         (Frac)  
--------------------------------------------------------------------------------
      1 Sb    c    0.396797    0.396797    0.396797      0.1090    1.000000    
      2 Sb    c    0.597171    0.597171    0.597171      0.1090    1.000000    
      3 Te1   c    0.000000    0.000000    0.000000      0.1600    1.000000    
      4 Te2   c    0.784571    0.784571    0.784571     -0.1890    1.000000    
      5 Te2   c    0.215429    0.215429    0.215429     -0.1890    1.000000    
--------------------------------------------------------------------------------



********************************************************************************
*  Input for Configuration =  23                                               *
********************************************************************************

  Formula = Sb2Te3                                                      

  Number of irreducible atoms/shells =       5


  Total number atoms/shells =       5

  Dimensionality = 3               :  Bulk   



  Cartesian lattice vectors (Angstroms) :

       -2.504286    0.000000   10.443767
        1.252143   -2.168775   10.443767
        1.252143    2.168775   10.443767

  Cell parameters (Angstroms/Degrees):

  a =      10.7398    alpha =  23.3006
  b =      10.7398    beta  =  23.3006
  c =      10.7398    gamma =  23.3006

  Initial cell volume =         170.167643 Angs**3

  Temperature of configuration =  0.000     K 

  Pressure of configuration =         0.000 GPa 

  Fractional coordinates of asymmetric unit :

--------------------------------------------------------------------------------
   No.  Atomic       x           y          z         Charge      Occupancy
        Label      (Frac)      (Frac)     (Frac)        (e)         (Frac)  
--------------------------------------------------------------------------------
      1 Sb    c    0.396797    0.396797    0.396797      0.1090    1.000000    
      2 Sb    c    0.603203    0.603203    0.603203      0.1090    1.000000    
      3 Te1   c    0.000000    0.000000    0.000000      0.1600    1.000000    
      4 Te2   c    0.784571    0.784571    0.784571     -0.1890    1.000000    
      5 Te2   c    0.215429    0.215429    0.215429     -0.1890    1.000000    
--------------------------------------------------------------------------------



********************************************************************************
*  Input for Configuration =  24                                               *
********************************************************************************

  Formula = Sb2Te3                                                      

  Number of irreducible atoms/shells =       5


  Total number atoms/shells =       5

  Dimensionality = 3               :  Bulk   



  Cartesian lattice vectors (Angstroms) :

       -2.504286    0.000000   10.443767
        1.252143   -2.168775   10.443767
        1.252143    2.168775   10.443767

  Cell parameters (Angstroms/Degrees):

  a =      10.7398    alpha =  23.3006
  b =      10.7398    beta  =  23.3006
  c =      10.7398    gamma =  23.3006

  Initial cell volume =         170.167643 Angs**3

  Temperature of configuration =  0.000     K 

  Pressure of configuration =         0.000 GPa 

  Fractional coordinates of asymmetric unit :

--------------------------------------------------------------------------------
   No.  Atomic       x           y          z         Charge      Occupancy
        Label      (Frac)      (Frac)     (Frac)        (e)         (Frac)  
--------------------------------------------------------------------------------
      1 Sb    c    0.396797    0.396797    0.396797      0.1090    1.000000    
      2 Sb    c    0.609235    0.609235    0.609235      0.1090    1.000000    
      3 Te1   c    0.000000    0.000000    0.000000      0.1600    1.000000    
      4 Te2   c    0.784571    0.784571    0.784571     -0.1890    1.000000    
      5 Te2   c    0.215429    0.215429    0.215429     -0.1890    1.000000    
--------------------------------------------------------------------------------



********************************************************************************
*  Input for Configuration =  25                                               *
********************************************************************************

  Formula = Sb2Te3                                                      

  Number of irreducible atoms/shells =       5


  Total number atoms/shells =       5

  Dimensionality = 3               :  Bulk   



  Cartesian lattice vectors (Angstroms) :

       -2.504286    0.000000   10.443767
        1.252143   -2.168775   10.443767
        1.252143    2.168775   10.443767

  Cell parameters (Angstroms/Degrees):

  a =      10.7398    alpha =  23.3006
  b =      10.7398    beta  =  23.3006
  c =      10.7398    gamma =  23.3006

  Initial cell volume =         170.167643 Angs**3

  Temperature of configuration =  0.000     K 

  Pressure of configuration =         0.000 GPa 

  Fractional coordinates of asymmetric unit :

--------------------------------------------------------------------------------
   No.  Atomic       x           y          z         Charge      Occupancy
        Label      (Frac)      (Frac)     (Frac)        (e)         (Frac)  
--------------------------------------------------------------------------------
      1 Sb    c    0.396797    0.396797    0.396797      0.1090    1.000000    
      2 Sb    c    0.615267    0.615267    0.615267      0.1090    1.000000    
      3 Te1   c    0.000000    0.000000    0.000000      0.1600    1.000000    
      4 Te2   c    0.784571    0.784571    0.784571     -0.1890    1.000000    
      5 Te2   c    0.215429    0.215429    0.215429     -0.1890    1.000000    
--------------------------------------------------------------------------------



********************************************************************************
*  Input for Configuration =  26                                               *
********************************************************************************

  Formula = Sb2Te3                                                      

  Number of irreducible atoms/shells =       5


  Total number atoms/shells =       5

  Dimensionality = 3               :  Bulk   



  Cartesian lattice vectors (Angstroms) :

       -2.504286    0.000000   10.443767
        1.252143   -2.168775   10.443767
        1.252143    2.168775   10.443767

  Cell parameters (Angstroms/Degrees):

  a =      10.7398    alpha =  23.3006
  b =      10.7398    beta  =  23.3006
  c =      10.7398    gamma =  23.3006

  Initial cell volume =         170.167643 Angs**3

  Temperature of configuration =  0.000     K 

  Pressure of configuration =         0.000 GPa 

  Fractional coordinates of asymmetric unit :

--------------------------------------------------------------------------------
   No.  Atomic       x           y          z         Charge      Occupancy
        Label      (Frac)      (Frac)     (Frac)        (e)         (Frac)  
--------------------------------------------------------------------------------
      1 Sb    c    0.396797    0.396797    0.396797      0.1090    1.000000    
      2 Sb    c    0.621300    0.621300    0.621300      0.1090    1.000000    
      3 Te1   c    0.000000    0.000000    0.000000      0.1600    1.000000    
      4 Te2   c    0.784571    0.784571    0.784571     -0.1890    1.000000    
      5 Te2   c    0.215429    0.215429    0.215429     -0.1890    1.000000    
--------------------------------------------------------------------------------



********************************************************************************
*  Input for Configuration =  27                                               *
********************************************************************************

  Formula = Sb2Te3                                                      

  Number of irreducible atoms/shells =       5


  Total number atoms/shells =       5

  Dimensionality = 3               :  Bulk   



  Cartesian lattice vectors (Angstroms) :

       -2.504286    0.000000   10.443767
        1.252143   -2.168775   10.443767
        1.252143    2.168775   10.443767

  Cell parameters (Angstroms/Degrees):

  a =      10.7398    alpha =  23.3006
  b =      10.7398    beta  =  23.3006
  c =      10.7398    gamma =  23.3006

  Initial cell volume =         170.167643 Angs**3

  Temperature of configuration =  0.000     K 

  Pressure of configuration =         0.000 GPa 

  Fractional coordinates of asymmetric unit :

--------------------------------------------------------------------------------
   No.  Atomic       x           y          z         Charge      Occupancy
        Label      (Frac)      (Frac)     (Frac)        (e)         (Frac)  
--------------------------------------------------------------------------------
      1 Sb    c    0.396797    0.396797    0.396797      0.1090    1.000000    
      2 Sb    c    0.627332    0.627332    0.627332      0.1090    1.000000    
      3 Te1   c    0.000000    0.000000    0.000000      0.1600    1.000000    
      4 Te2   c    0.784571    0.784571    0.784571     -0.1890    1.000000    
      5 Te2   c    0.215429    0.215429    0.215429     -0.1890    1.000000    
--------------------------------------------------------------------------------



********************************************************************************
*  Input for Configuration =  28                                               *
********************************************************************************

  Formula = Sb2Te3                                                      

  Number of irreducible atoms/shells =       5


  Total number atoms/shells =       5

  Dimensionality = 3               :  Bulk   



  Cartesian lattice vectors (Angstroms) :

       -2.504286    0.000000   10.443767
        1.252143   -2.168775   10.443767
        1.252143    2.168775   10.443767

  Cell parameters (Angstroms/Degrees):

  a =      10.7398    alpha =  23.3006
  b =      10.7398    beta  =  23.3006
  c =      10.7398    gamma =  23.3006

  Initial cell volume =         170.167643 Angs**3

  Temperature of configuration =  0.000     K 

  Pressure of configuration =         0.000 GPa 

  Fractional coordinates of asymmetric unit :

--------------------------------------------------------------------------------
   No.  Atomic       x           y          z         Charge      Occupancy
        Label      (Frac)      (Frac)     (Frac)        (e)         (Frac)  
--------------------------------------------------------------------------------
      1 Sb    c    0.396797    0.396797    0.396797      0.1090    1.000000    
      2 Sb    c    0.633364    0.633364    0.633364      0.1090    1.000000    
      3 Te1   c    0.000000    0.000000    0.000000      0.1600    1.000000    
      4 Te2   c    0.784571    0.784571    0.784571     -0.1890    1.000000    
      5 Te2   c    0.215429    0.215429    0.215429     -0.1890    1.000000    
--------------------------------------------------------------------------------



********************************************************************************
*  Input for Configuration =  29                                               *
********************************************************************************

  Formula = Sb2Te3                                                      

  Number of irreducible atoms/shells =       5


  Total number atoms/shells =       5

  Dimensionality = 3               :  Bulk   



  Cartesian lattice vectors (Angstroms) :

       -2.504286    0.000000   10.443767
        1.252143   -2.168775   10.443767
        1.252143    2.168775   10.443767

  Cell parameters (Angstroms/Degrees):

  a =      10.7398    alpha =  23.3006
  b =      10.7398    beta  =  23.3006
  c =      10.7398    gamma =  23.3006

  Initial cell volume =         170.167643 Angs**3

  Temperature of configuration =  0.000     K 

  Pressure of configuration =         0.000 GPa 

  Fractional coordinates of asymmetric unit :

--------------------------------------------------------------------------------
   No.  Atomic       x           y          z         Charge      Occupancy
        Label      (Frac)      (Frac)     (Frac)        (e)         (Frac)  
--------------------------------------------------------------------------------
      1 Sb    c    0.396797    0.396797    0.396797      0.1090    1.000000    
      2 Sb    c    0.639396    0.639396    0.639396      0.1090    1.000000    
      3 Te1   c    0.000000    0.000000    0.000000      0.1600    1.000000    
      4 Te2   c    0.784571    0.784571    0.784571     -0.1890    1.000000    
      5 Te2   c    0.215429    0.215429    0.215429     -0.1890    1.000000    
--------------------------------------------------------------------------------



********************************************************************************
*  Input for Configuration =  30                                               *
********************************************************************************

  Formula = Sb2Te3                                                      

  Number of irreducible atoms/shells =       5


  Total number atoms/shells =       5

  Dimensionality = 3               :  Bulk   



  Cartesian lattice vectors (Angstroms) :

       -2.504286    0.000000   10.443767
        1.252143   -2.168775   10.443767
        1.252143    2.168775   10.443767

  Cell parameters (Angstroms/Degrees):

  a =      10.7398    alpha =  23.3006
  b =      10.7398    beta  =  23.3006
  c =      10.7398    gamma =  23.3006

  Initial cell volume =         170.167643 Angs**3

  Temperature of configuration =  0.000     K 

  Pressure of configuration =         0.000 GPa 

  Fractional coordinates of asymmetric unit :

--------------------------------------------------------------------------------
   No.  Atomic       x           y          z         Charge      Occupancy
        Label      (Frac)      (Frac)     (Frac)        (e)         (Frac)  
--------------------------------------------------------------------------------
      1 Sb    c    0.396797    0.396797    0.396797      0.1090    1.000000    
      2 Sb    c    0.645428    0.645428    0.645428      0.1090    1.000000    
      3 Te1   c    0.000000    0.000000    0.000000      0.1600    1.000000    
      4 Te2   c    0.784571    0.784571    0.784571     -0.1890    1.000000    
      5 Te2   c    0.215429    0.215429    0.215429     -0.1890    1.000000    
--------------------------------------------------------------------------------



********************************************************************************
*  Input for Configuration =  31                                               *
********************************************************************************

  Formula = Sb2Te3                                                      

  Number of irreducible atoms/shells =       5


  Total number atoms/shells =       5

  Dimensionality = 3               :  Bulk   



  Cartesian lattice vectors (Angstroms) :

       -2.504286    0.000000   10.443767
        1.252143   -2.168775   10.443767
        1.252143    2.168775   10.443767

  Cell parameters (Angstroms/Degrees):

  a =      10.7398    alpha =  23.3006
  b =      10.7398    beta  =  23.3006
  c =      10.7398    gamma =  23.3006

  Initial cell volume =         170.167643 Angs**3

  Temperature of configuration =  0.000     K 

  Pressure of configuration =         0.000 GPa 

  Fractional coordinates of asymmetric unit :

--------------------------------------------------------------------------------
   No.  Atomic       x           y          z         Charge      Occupancy
        Label      (Frac)      (Frac)     (Frac)        (e)         (Frac)  
--------------------------------------------------------------------------------
      1 Sb    c    0.396797    0.396797    0.396797      0.1090    1.000000    
      2 Sb    c    0.603203    0.603203    0.603203      0.1090    1.000000    
      3 Te1   c    0.930000    0.930000    0.930000      0.1600    1.000000    
      4 Te2   c    0.784571    0.784571    0.784571     -0.1890    1.000000    
      5 Te2   c    0.215429    0.215429    0.215429     -0.1890    1.000000    
--------------------------------------------------------------------------------



********************************************************************************
*  Input for Configuration =  32                                               *
********************************************************************************

  Formula = Sb2Te3                                                      

  Number of irreducible atoms/shells =       5


  Total number atoms/shells =       5

  Dimensionality = 3               :  Bulk   



  Cartesian lattice vectors (Angstroms) :

       -2.504286    0.000000   10.443767
        1.252143   -2.168775   10.443767
        1.252143    2.168775   10.443767

  Cell parameters (Angstroms/Degrees):

  a =      10.7398    alpha =  23.3006
  b =      10.7398    beta  =  23.3006
  c =      10.7398    gamma =  23.3006

  Initial cell volume =         170.167643 Angs**3

  Temperature of configuration =  0.000     K 

  Pressure of configuration =         0.000 GPa 

  Fractional coordinates of asymmetric unit :

--------------------------------------------------------------------------------
   No.  Atomic       x           y          z         Charge      Occupancy
        Label      (Frac)      (Frac)     (Frac)        (e)         (Frac)  
--------------------------------------------------------------------------------
      1 Sb    c    0.396797    0.396797    0.396797      0.1090    1.000000    
      2 Sb    c    0.603203    0.603203    0.603203      0.1090    1.000000    
      3 Te1   c    0.940000    0.940000    0.940000      0.1600    1.000000    
      4 Te2   c    0.784571    0.784571    0.784571     -0.1890    1.000000    
      5 Te2   c    0.215429    0.215429    0.215429     -0.1890    1.000000    
--------------------------------------------------------------------------------



********************************************************************************
*  Input for Configuration =  33                                               *
********************************************************************************

  Formula = Sb2Te3                                                      

  Number of irreducible atoms/shells =       5


  Total number atoms/shells =       5

  Dimensionality = 3               :  Bulk   



  Cartesian lattice vectors (Angstroms) :

       -2.504286    0.000000   10.443767
        1.252143   -2.168775   10.443767
        1.252143    2.168775   10.443767

  Cell parameters (Angstroms/Degrees):

  a =      10.7398    alpha =  23.3006
  b =      10.7398    beta  =  23.3006
  c =      10.7398    gamma =  23.3006

  Initial cell volume =         170.167643 Angs**3

  Temperature of configuration =  0.000     K 

  Pressure of configuration =         0.000 GPa 

  Fractional coordinates of asymmetric unit :

--------------------------------------------------------------------------------
   No.  Atomic       x           y          z         Charge      Occupancy
        Label      (Frac)      (Frac)     (Frac)        (e)         (Frac)  
--------------------------------------------------------------------------------
      1 Sb    c    0.396797    0.396797    0.396797      0.1090    1.000000    
      2 Sb    c    0.603203    0.603203    0.603203      0.1090    1.000000    
      3 Te1   c    0.950000    0.950000    0.950000      0.1600    1.000000    
      4 Te2   c    0.784571    0.784571    0.784571     -0.1890    1.000000    
      5 Te2   c    0.215429    0.215429    0.215429     -0.1890    1.000000    
--------------------------------------------------------------------------------



********************************************************************************
*  Input for Configuration =  34                                               *
********************************************************************************

  Formula = Sb2Te3                                                      

  Number of irreducible atoms/shells =       5


  Total number atoms/shells =       5

  Dimensionality = 3               :  Bulk   



  Cartesian lattice vectors (Angstroms) :

       -2.504286    0.000000   10.443767
        1.252143   -2.168775   10.443767
        1.252143    2.168775   10.443767

  Cell parameters (Angstroms/Degrees):

  a =      10.7398    alpha =  23.3006
  b =      10.7398    beta  =  23.3006
  c =      10.7398    gamma =  23.3006

  Initial cell volume =         170.167643 Angs**3

  Temperature of configuration =  0.000     K 

  Pressure of configuration =         0.000 GPa 

  Fractional coordinates of asymmetric unit :

--------------------------------------------------------------------------------
   No.  Atomic       x           y          z         Charge      Occupancy
        Label      (Frac)      (Frac)     (Frac)        (e)         (Frac)  
--------------------------------------------------------------------------------
      1 Sb    c    0.396797    0.396797    0.396797      0.1090    1.000000    
      2 Sb    c    0.603203    0.603203    0.603203      0.1090    1.000000    
      3 Te1   c    0.960000    0.960000    0.960000      0.1600    1.000000    
      4 Te2   c    0.784571    0.784571    0.784571     -0.1890    1.000000    
      5 Te2   c    0.215429    0.215429    0.215429     -0.1890    1.000000    
--------------------------------------------------------------------------------



********************************************************************************
*  Input for Configuration =  35                                               *
********************************************************************************

  Formula = Sb2Te3                                                      

  Number of irreducible atoms/shells =       5


  Total number atoms/shells =       5

  Dimensionality = 3               :  Bulk   



  Cartesian lattice vectors (Angstroms) :

       -2.504286    0.000000   10.443767
        1.252143   -2.168775   10.443767
        1.252143    2.168775   10.443767

  Cell parameters (Angstroms/Degrees):

  a =      10.7398    alpha =  23.3006
  b =      10.7398    beta  =  23.3006
  c =      10.7398    gamma =  23.3006

  Initial cell volume =         170.167643 Angs**3

  Temperature of configuration =  0.000     K 

  Pressure of configuration =         0.000 GPa 

  Fractional coordinates of asymmetric unit :

--------------------------------------------------------------------------------
   No.  Atomic       x           y          z         Charge      Occupancy
        Label      (Frac)      (Frac)     (Frac)        (e)         (Frac)  
--------------------------------------------------------------------------------
      1 Sb    c    0.396797    0.396797    0.396797      0.1090    1.000000    
      2 Sb    c    0.603203    0.603203    0.603203      0.1090    1.000000    
      3 Te1   c    0.970000    0.970000    0.970000      0.1600    1.000000    
      4 Te2   c    0.784571    0.784571    0.784571     -0.1890    1.000000    
      5 Te2   c    0.215429    0.215429    0.215429     -0.1890    1.000000    
--------------------------------------------------------------------------------



********************************************************************************
*  Input for Configuration =  36                                               *
********************************************************************************

  Formula = Sb2Te3                                                      

  Number of irreducible atoms/shells =       5


  Total number atoms/shells =       5

  Dimensionality = 3               :  Bulk   



  Cartesian lattice vectors (Angstroms) :

       -2.504286    0.000000   10.443767
        1.252143   -2.168775   10.443767
        1.252143    2.168775   10.443767

  Cell parameters (Angstroms/Degrees):

  a =      10.7398    alpha =  23.3006
  b =      10.7398    beta  =  23.3006
  c =      10.7398    gamma =  23.3006

  Initial cell volume =         170.167643 Angs**3

  Temperature of configuration =  0.000     K 

  Pressure of configuration =         0.000 GPa 

  Fractional coordinates of asymmetric unit :

--------------------------------------------------------------------------------
   No.  Atomic       x           y          z         Charge      Occupancy
        Label      (Frac)      (Frac)     (Frac)        (e)         (Frac)  
--------------------------------------------------------------------------------
      1 Sb    c    0.396797    0.396797    0.396797      0.1090    1.000000    
      2 Sb    c    0.603203    0.603203    0.603203      0.1090    1.000000    
      3 Te1   c    0.980000    0.980000    0.980000      0.1600    1.000000    
      4 Te2   c    0.784571    0.784571    0.784571     -0.1890    1.000000    
      5 Te2   c    0.215429    0.215429    0.215429     -0.1890    1.000000    
--------------------------------------------------------------------------------



********************************************************************************
*  Input for Configuration =  37                                               *
********************************************************************************

  Formula = Sb2Te3                                                      

  Number of irreducible atoms/shells =       5


  Total number atoms/shells =       5

  Dimensionality = 3               :  Bulk   



  Cartesian lattice vectors (Angstroms) :

       -2.504286    0.000000   10.443767
        1.252143   -2.168775   10.443767
        1.252143    2.168775   10.443767

  Cell parameters (Angstroms/Degrees):

  a =      10.7398    alpha =  23.3006
  b =      10.7398    beta  =  23.3006
  c =      10.7398    gamma =  23.3006

  Initial cell volume =         170.167643 Angs**3

  Temperature of configuration =  0.000     K 

  Pressure of configuration =         0.000 GPa 

  Fractional coordinates of asymmetric unit :

--------------------------------------------------------------------------------
   No.  Atomic       x           y          z         Charge      Occupancy
        Label      (Frac)      (Frac)     (Frac)        (e)         (Frac)  
--------------------------------------------------------------------------------
      1 Sb    c    0.396797    0.396797    0.396797      0.1090    1.000000    
      2 Sb    c    0.603203    0.603203    0.603203      0.1090    1.000000    
      3 Te1   c    0.990000    0.990000    0.990000      0.1600    1.000000    
      4 Te2   c    0.784571    0.784571    0.784571     -0.1890    1.000000    
      5 Te2   c    0.215429    0.215429    0.215429     -0.1890    1.000000    
--------------------------------------------------------------------------------



********************************************************************************
*  Input for Configuration =  38                                               *
********************************************************************************

  Formula = Sb2Te3                                                      

  Number of irreducible atoms/shells =       5


  Total number atoms/shells =       5

  Dimensionality = 3               :  Bulk   



  Cartesian lattice vectors (Angstroms) :

       -2.504286    0.000000   10.443767
        1.252143   -2.168775   10.443767
        1.252143    2.168775   10.443767

  Cell parameters (Angstroms/Degrees):

  a =      10.7398    alpha =  23.3006
  b =      10.7398    beta  =  23.3006
  c =      10.7398    gamma =  23.3006

  Initial cell volume =         170.167643 Angs**3

  Temperature of configuration =  0.000     K 

  Pressure of configuration =         0.000 GPa 

  Fractional coordinates of asymmetric unit :

--------------------------------------------------------------------------------
   No.  Atomic       x           y          z         Charge      Occupancy
        Label      (Frac)      (Frac)     (Frac)        (e)         (Frac)  
--------------------------------------------------------------------------------
      1 Sb    c    0.396797    0.396797    0.396797      0.1090    1.000000    
      2 Sb    c    0.603203    0.603203    0.603203      0.1090    1.000000    
      3 Te1   c    0.000000    0.000000    0.000000      0.1600    1.000000    
      4 Te2   c    0.784571    0.784571    0.784571     -0.1890    1.000000    
      5 Te2   c    0.215429    0.215429    0.215429     -0.1890    1.000000    
--------------------------------------------------------------------------------



********************************************************************************
*  Input for Configuration =  39                                               *
********************************************************************************

  Formula = Sb2Te3                                                      

  Number of irreducible atoms/shells =       5


  Total number atoms/shells =       5

  Dimensionality = 3               :  Bulk   



  Cartesian lattice vectors (Angstroms) :

       -2.504286    0.000000   10.443767
        1.252143   -2.168775   10.443767
        1.252143    2.168775   10.443767

  Cell parameters (Angstroms/Degrees):

  a =      10.7398    alpha =  23.3006
  b =      10.7398    beta  =  23.3006
  c =      10.7398    gamma =  23.3006

  Initial cell volume =         170.167643 Angs**3

  Temperature of configuration =  0.000     K 

  Pressure of configuration =         0.000 GPa 

  Fractional coordinates of asymmetric unit :

--------------------------------------------------------------------------------
   No.  Atomic       x           y          z         Charge      Occupancy
        Label      (Frac)      (Frac)     (Frac)        (e)         (Frac)  
--------------------------------------------------------------------------------
      1 Sb    c    0.396797    0.396797    0.396797      0.1090    1.000000    
      2 Sb    c    0.603203    0.603203    0.603203      0.1090    1.000000    
      3 Te1   c    0.010000    0.010000    0.010000      0.1600    1.000000    
      4 Te2   c    0.784571    0.784571    0.784571     -0.1890    1.000000    
      5 Te2   c    0.215429    0.215429    0.215429     -0.1890    1.000000    
--------------------------------------------------------------------------------



********************************************************************************
*  Input for Configuration =  40                                               *
********************************************************************************

  Formula = Sb2Te3                                                      

  Number of irreducible atoms/shells =       5


  Total number atoms/shells =       5

  Dimensionality = 3               :  Bulk   



  Cartesian lattice vectors (Angstroms) :

       -2.504286    0.000000   10.443767
        1.252143   -2.168775   10.443767
        1.252143    2.168775   10.443767

  Cell parameters (Angstroms/Degrees):

  a =      10.7398    alpha =  23.3006
  b =      10.7398    beta  =  23.3006
  c =      10.7398    gamma =  23.3006

  Initial cell volume =         170.167643 Angs**3

  Temperature of configuration =  0.000     K 

  Pressure of configuration =         0.000 GPa 

  Fractional coordinates of asymmetric unit :

--------------------------------------------------------------------------------
   No.  Atomic       x           y          z         Charge      Occupancy
        Label      (Frac)      (Frac)     (Frac)        (e)         (Frac)  
--------------------------------------------------------------------------------
      1 Sb    c    0.396797    0.396797    0.396797      0.1090    1.000000    
      2 Sb    c    0.603203    0.603203    0.603203      0.1090    1.000000    
      3 Te1   c    0.020000    0.020000    0.020000      0.1600    1.000000    
      4 Te2   c    0.784571    0.784571    0.784571     -0.1890    1.000000    
      5 Te2   c    0.215429    0.215429    0.215429     -0.1890    1.000000    
--------------------------------------------------------------------------------



********************************************************************************
*  Input for Configuration =  41                                               *
********************************************************************************

  Formula = Sb2Te3                                                      

  Number of irreducible atoms/shells =       5


  Total number atoms/shells =       5

  Dimensionality = 3               :  Bulk   



  Cartesian lattice vectors (Angstroms) :

       -2.504286    0.000000   10.443767
        1.252143   -2.168775   10.443767
        1.252143    2.168775   10.443767

  Cell parameters (Angstroms/Degrees):

  a =      10.7398    alpha =  23.3006
  b =      10.7398    beta  =  23.3006
  c =      10.7398    gamma =  23.3006

  Initial cell volume =         170.167643 Angs**3

  Temperature of configuration =  0.000     K 

  Pressure of configuration =         0.000 GPa 

  Fractional coordinates of asymmetric unit :

--------------------------------------------------------------------------------
   No.  Atomic       x           y          z         Charge      Occupancy
        Label      (Frac)      (Frac)     (Frac)        (e)         (Frac)  
--------------------------------------------------------------------------------
      1 Sb    c    0.396797    0.396797    0.396797      0.1090    1.000000    
      2 Sb    c    0.603203    0.603203    0.603203      0.1090    1.000000    
      3 Te1   c    0.030000    0.030000    0.030000      0.1600    1.000000    
      4 Te2   c    0.784571    0.784571    0.784571     -0.1890    1.000000    
      5 Te2   c    0.215429    0.215429    0.215429     -0.1890    1.000000    
--------------------------------------------------------------------------------



********************************************************************************
*  Input for Configuration =  42                                               *
********************************************************************************

  Formula = Sb2Te3                                                      

  Number of irreducible atoms/shells =       5


  Total number atoms/shells =       5

  Dimensionality = 3               :  Bulk   



  Cartesian lattice vectors (Angstroms) :

       -2.504286    0.000000   10.443767
        1.252143   -2.168775   10.443767
        1.252143    2.168775   10.443767

  Cell parameters (Angstroms/Degrees):

  a =      10.7398    alpha =  23.3006
  b =      10.7398    beta  =  23.3006
  c =      10.7398    gamma =  23.3006

  Initial cell volume =         170.167643 Angs**3

  Temperature of configuration =  0.000     K 

  Pressure of configuration =         0.000 GPa 

  Fractional coordinates of asymmetric unit :

--------------------------------------------------------------------------------
   No.  Atomic       x           y          z         Charge      Occupancy
        Label      (Frac)      (Frac)     (Frac)        (e)         (Frac)  
--------------------------------------------------------------------------------
      1 Sb    c    0.396797    0.396797    0.396797      0.1090    1.000000    
      2 Sb    c    0.603203    0.603203    0.603203      0.1090    1.000000    
      3 Te1   c    0.040000    0.040000    0.040000      0.1600    1.000000    
      4 Te2   c    0.784571    0.784571    0.784571     -0.1890    1.000000    
      5 Te2   c    0.215429    0.215429    0.215429     -0.1890    1.000000    
--------------------------------------------------------------------------------



********************************************************************************
*  Input for Configuration =  43                                               *
********************************************************************************

  Formula = Sb2Te3                                                      

  Number of irreducible atoms/shells =       5


  Total number atoms/shells =       5

  Dimensionality = 3               :  Bulk   



  Cartesian lattice vectors (Angstroms) :

       -2.504286    0.000000   10.443767
        1.252143   -2.168775   10.443767
        1.252143    2.168775   10.443767

  Cell parameters (Angstroms/Degrees):

  a =      10.7398    alpha =  23.3006
  b =      10.7398    beta  =  23.3006
  c =      10.7398    gamma =  23.3006

  Initial cell volume =         170.167643 Angs**3

  Temperature of configuration =  0.000     K 

  Pressure of configuration =         0.000 GPa 

  Fractional coordinates of asymmetric unit :

--------------------------------------------------------------------------------
   No.  Atomic       x           y          z         Charge      Occupancy
        Label      (Frac)      (Frac)     (Frac)        (e)         (Frac)  
--------------------------------------------------------------------------------
      1 Sb    c    0.396797    0.396797    0.396797      0.1090    1.000000    
      2 Sb    c    0.603203    0.603203    0.603203      0.1090    1.000000    
      3 Te1   c    0.050000    0.050000    0.050000      0.1600    1.000000    
      4 Te2   c    0.784571    0.784571    0.784571     -0.1890    1.000000    
      5 Te2   c    0.215429    0.215429    0.215429     -0.1890    1.000000    
--------------------------------------------------------------------------------



********************************************************************************
*  Input for Configuration =  44                                               *
********************************************************************************

  Formula = Sb2Te3                                                      

  Number of irreducible atoms/shells =       5


  Total number atoms/shells =       5

  Dimensionality = 3               :  Bulk   



  Cartesian lattice vectors (Angstroms) :

       -2.504286    0.000000   10.443767
        1.252143   -2.168775   10.443767
        1.252143    2.168775   10.443767

  Cell parameters (Angstroms/Degrees):

  a =      10.7398    alpha =  23.3006
  b =      10.7398    beta  =  23.3006
  c =      10.7398    gamma =  23.3006

  Initial cell volume =         170.167643 Angs**3

  Temperature of configuration =  0.000     K 

  Pressure of configuration =         0.000 GPa 

  Fractional coordinates of asymmetric unit :

--------------------------------------------------------------------------------
   No.  Atomic       x           y          z         Charge      Occupancy
        Label      (Frac)      (Frac)     (Frac)        (e)         (Frac)  
--------------------------------------------------------------------------------
      1 Sb    c    0.396797    0.396797    0.396797      0.1090    1.000000    
      2 Sb    c    0.603203    0.603203    0.603203      0.1090    1.000000    
      3 Te1   c    0.060000    0.060000    0.060000      0.1600    1.000000    
      4 Te2   c    0.784571    0.784571    0.784571     -0.1890    1.000000    
      5 Te2   c    0.215429    0.215429    0.215429     -0.1890    1.000000    
--------------------------------------------------------------------------------



********************************************************************************
*  Input for Configuration =  45                                               *
********************************************************************************

  Formula = Sb2Te3                                                      

  Number of irreducible atoms/shells =       5


  Total number atoms/shells =       5

  Dimensionality = 3               :  Bulk   



  Cartesian lattice vectors (Angstroms) :

       -2.504286    0.000000   10.443767
        1.252143   -2.168775   10.443767
        1.252143    2.168775   10.443767

[...]
--------------------------------------------------------------------------------
  Total lattice energy       =           -1697.4540 kJ/(mole unit cells)
--------------------------------------------------------------------------------

  Born effective charge tensors : 

-------------------------------------------------------------------------------
  Atom             x           y             z
-------------------------------------------------------------------------------
   1 Sb    x       0.1158      0.0000      0.0000
           y       0.0000      0.1158      0.0000
           z       0.0000      0.0000      0.1158
-------------------------------------------------------------------------------
   2 Sb    x       0.1158      0.0000      0.0000
           y       0.0000      0.1158      0.0000
           z       0.0000      0.0000      0.1158
-------------------------------------------------------------------------------
   3 Te1   x       0.1806      0.0000      0.0000
           y       0.0000      0.1806      0.0000
           z       0.0000      0.0000      0.1806
-------------------------------------------------------------------------------
   4 Te2   x      -0.2061      0.0000      0.0000
           y       0.0000     -0.2061      0.0000
           z       0.0000      0.0000     -0.2061
-------------------------------------------------------------------------------
   5 Te2   x      -0.2061      0.0000      0.0000
           y       0.0000     -0.2061      0.0000
           z       0.0000      0.0000     -0.2061
-------------------------------------------------------------------------------




  Elastic Constant Matrix: (Units=GPa)

-------------------------------------------------------------------------------
  Indices      1         2         3         4         5         6    
-------------------------------------------------------------------------------
       1     55.7225   26.7443   38.2769  -10.5746   -3.8106   -6.4182
       2     26.7443   36.6918   18.3227   14.0080   20.4628   10.5162
       3     38.2769   18.3227   24.0385   -2.4057  -11.6681    4.2968
       4    -10.5746   14.0080   -2.4057   16.5963    4.4491   20.5532
       5     -3.8106   20.4628  -11.6681    4.4491   37.2577  -10.5560
       6     -6.4182   10.5162    4.2968   20.5532  -10.5560   25.7454
-------------------------------------------------------------------------------


  Elastic Compliance Matrix: (Units=1/GPa)

-------------------------------------------------------------------------------
  Indices      1         2         3         4         5         6    
-------------------------------------------------------------------------------
       1   -0.118854  0.086630  0.111830 -0.046215 -0.036714 -0.061838
       2    0.086630 -0.134593  0.005272  0.058619  0.096874  0.068616
       3    0.111830  0.005272 -0.163310 -0.005956 -0.028889  0.045891
       4   -0.046215  0.058619 -0.005956 -0.225238  0.033138  0.158930
       5   -0.036714  0.096874 -0.028889  0.033138 -0.071346 -0.099609
       6   -0.061838  0.068616  0.045891  0.158930 -0.099609 -0.179979
-------------------------------------------------------------------------------

 Mechanical properties :

-------------------------------------------------------------------------------
  Convention :                    Reuss         Voigt         Hill
-------------------------------------------------------------------------------
  Bulk  Modulus (GPa)     =    -107.60207      31.46008     -38.07100
  Shear Modulus (GPa)     =      -3.83470      18.12712       7.14621
-------------------------------------------------------------------------------
  Velocity S-wave (km/s)  =      -2.50480       5.44593       3.41936
  Velocity P-wave (km/s)  =      13.57995       9.54026       6.83369
-------------------------------------------------------------------------------
  Compressibility (1/GPa) =   -0.00929350
-------------------------------------------------------------------------------
  Stress axis :                     x             y             z
-------------------------------------------------------------------------------
  Youngs Moduli (GPa)     =      -8.41365      -7.42978      -6.12332
-------------------------------------------------------------------------------
  Poissons Ratio (x)      =                     0.64364       0.68477
  Poissons Ratio (y)      =       0.72887                     0.03228
  Poissons Ratio (z)      =       0.94090       0.03917
-------------------------------------------------------------------------------


  Piezoelectric Strain Matrix: (Units=C/m**2)

-------------------------------------------------------------------------------
  Indices      1         2         3         4         5         6    
-------------------------------------------------------------------------------
       x     0.00000   0.00000   0.00000  -0.00000  -0.00000  -0.00000
       y    -0.00000   0.00000   0.00000   0.00000  -0.00000   0.00000
       z    -0.00000   0.00000  -0.00000   0.00000   0.00000  -0.00000
-------------------------------------------------------------------------------


  Piezoelectric Stress Matrix: (Units=10**-11 C/N)

-------------------------------------------------------------------------------
  Indices      1         2         3         4         5         6    
-------------------------------------------------------------------------------
       x     0.00000  -0.00000  -0.00000   0.00000   0.00000   0.00000
       y     0.00000   0.00000  -0.00000  -0.00000   0.00000   0.00000
       z     0.00000  -0.00000   0.00000   0.00000   0.00000   0.00000
-------------------------------------------------------------------------------


  Static dielectric constant tensor : 

-------------------------------------------------------------------------------
              x         y         z
-------------------------------------------------------------------------------
       x     1.03334  -0.00030  -0.00018
       y    -0.00030   1.03472  -0.00004
       z    -0.00018  -0.00004   1.03476
--------------------------------------------------------------------------------

  Static refractive indices : 

-------------------------------------------------------------------------------
    1 =    1.01649      2 =    1.01724      3 =    1.01724
-------------------------------------------------------------------------------


  Time to end of properties =     814.2069 seconds


********************************************************************************
*  Output for configuration 133                                                *
********************************************************************************


  Components of energy : 

--------------------------------------------------------------------------------
  Interatomic potentials     =          -3.07681474 eV
  Monopole - monopole (real) =           0.01415199 eV
  Monopole - monopole (recip)=          -0.02962405 eV
  Monopole - monopole (total)=          -0.01547206 eV
  Energy shift               =         -14.50069748 eV
--------------------------------------------------------------------------------
  Total lattice energy       =         -17.59298428 eV
--------------------------------------------------------------------------------
  Total lattice energy       =           -1697.4540 kJ/(mole unit cells)
--------------------------------------------------------------------------------


  Number of variables =     18

  Maximum number of calculations  =          1000
  Maximum Hessian update interval =            10
  Maximum step size               =   1.000000000
  Maximum parameter tolerance     =   0.000010000
  Maximum function  tolerance     =   0.000010000
  Maximum gradient  tolerance     =   0.001000000
  Maximum gradient  component     =   0.010000000

  Symmetry not applied to optimisation

  Cell parameters to be optimised using strains

  Newton-Raphson optimiser to be used

  BFGS hessian update to be used

  Dumpfile to be written after every cycle

  Start of bulk optimisation :

  Cycle:      0 Energy:       -17.592984  Gnorm:      0.106731  CPU:  814.235
  ** Hessian calculated **
  Cycle:      1 Energy:       -17.608029  Gnorm:      0.174426  CPU:  814.243
  Cycle:      2 Energy:       -17.611375  Gnorm:      0.191718  CPU:  814.271
  Cycle:      3 Energy:       -17.626111  Gnorm:      0.311220  CPU:  814.303
  Cycle:      4 Energy:       -17.637436  Gnorm:      0.221288  CPU:  814.331
  Cycle:      5 Energy:       -17.649571  Gnorm:      0.348041  CPU:  814.359
  Cycle:      6 Energy:       -17.668434  Gnorm:      0.279247  CPU:  814.391
  Cycle:      7 Energy:       -17.675352  Gnorm:      0.029192  CPU:  814.419
  Cycle:      8 Energy:       -17.676100  Gnorm:      0.056729  CPU:  814.451
  Cycle:      9 Energy:       -17.677267  Gnorm:      0.037372  CPU:  814.479
  Cycle:     10 Energy:       -17.677787  Gnorm:      0.019724  CPU:  814.507
  ** Hessian calculated **
  Cycle:     11 Energy:       -17.677902  Gnorm:      0.000547  CPU:  814.539


  **** Optimisation achieved ****


  Final energy =     -17.67790197 eV
  Final Gnorm  =       0.00005307

  Components of energy : 

--------------------------------------------------------------------------------
  Interatomic potentials     =          -3.36164574 eV
  Monopole - monopole (real) =           0.03724026 eV
  Monopole - monopole (recip)=           0.14720098 eV
  Monopole - monopole (total)=           0.18444124 eV
  Energy shift               =         -14.50069748 eV
--------------------------------------------------------------------------------
  Total lattice energy       =         -17.67790197 eV
--------------------------------------------------------------------------------
  Total lattice energy       =           -1705.6473 kJ/(mole unit cells)
--------------------------------------------------------------------------------

  Final fractional coordinates of atoms :

--------------------------------------------------------------------------------
   No.  Atomic        x           y          z          Radius
        Label       (Frac)      (Frac)     (Frac)       (Angs) 
--------------------------------------------------------------------------------
     1  Sb    c     0.396797    0.396797    0.396797    0.000000
     2  Sb    c     0.604401    0.604401    0.604402    0.000000
     3  Te1   c     0.000599    0.000599    0.000599    0.000000
     4  Te2   c     0.786924    0.786924    0.786924    0.000000
     5  Te2   c     0.214274    0.214274    0.214274    0.000000
--------------------------------------------------------------------------------

  Final Cartesian lattice vectors (Angstroms) :

       11.477211    0.305005    0.181086
       10.661846    4.259629    0.181087
       10.661846    2.198262    3.653064


  Final cell parameters and derivatives :

--------------------------------------------------------------------------------
       a           11.482691 Angstrom     dE/de1(xx)    -0.000469 eV/strain
       b           11.482691 Angstrom     dE/de2(yy)    -0.000313 eV/strain
       c           11.482691 Angstrom     dE/de3(zz)    -0.000323 eV/strain
       alpha       20.252914 Degrees      dE/de4(yz)     0.000016 eV/strain
       beta        20.252923 Degrees      dE/de5(xz)    -0.000013 eV/strain
       gamma       20.252919 Degrees      dE/de6(xy)    -0.000014 eV/strain
--------------------------------------------------------------------------------

  Primitive cell volume =           158.754090 Angs**3

  Density of cell =      6.551089 g/cm**3

  Non-primitive cell volume =           158.754090 Angs**3


  Final internal derivatives :

--------------------------------------------------------------------------------
   No.  Atomic          x             y             z           Radius
        Label          (eV)          (eV)          (eV)        (eV/Angs)
--------------------------------------------------------------------------------
      1 Sb    c       0.000000      0.000000      0.000000      0.000000
      2 Sb    c      -0.000392     -0.000384     -0.000382      0.000000
      3 Te1   c      -0.000075     -0.000074     -0.000073      0.000000
      4 Te2   c      -0.000079     -0.000069     -0.000070      0.000000
      5 Te2   c       0.000065      0.000056      0.000058      0.000000
--------------------------------------------------------------------------------
  Maximum abs         0.000392      0.000384      0.000382      0.000000
--------------------------------------------------------------------------------


  Born effective charge tensors : 

-------------------------------------------------------------------------------
  Atom             x           y             z
-------------------------------------------------------------------------------
   1 Sb    x       0.1158      0.0000      0.0000
           y       0.0000      0.1158      0.0000
           z       0.0000      0.0000      0.1158
-------------------------------------------------------------------------------
   2 Sb    x       0.1158      0.0000      0.0000
           y       0.0000      0.1158      0.0000
           z       0.0000      0.0000      0.1158
-------------------------------------------------------------------------------
   3 Te1   x       0.1806      0.0000      0.0000
           y       0.0000      0.1806      0.0000
           z       0.0000      0.0000      0.1806
-------------------------------------------------------------------------------
   4 Te2   x      -0.2061      0.0000      0.0000
           y       0.0000     -0.2061      0.0000
           z       0.0000      0.0000     -0.2061
-------------------------------------------------------------------------------
   5 Te2   x      -0.2061      0.0000      0.0000
           y       0.0000     -0.2061      0.0000
           z       0.0000      0.0000     -0.2061
-------------------------------------------------------------------------------




  Elastic Constant Matrix: (Units=GPa)

-------------------------------------------------------------------------------
  Indices      1         2         3         4         5         6    
-------------------------------------------------------------------------------
       1     92.2660   38.2829   51.0489  -11.7056   -3.0365   -5.1145
       2     38.2829   74.6736   32.3899   15.8872   23.3186    8.9024
       3     51.0489   32.3899   60.8656   -3.2264  -15.6475    4.0179
       4    -11.7056   15.8872   -3.2264   30.0044    4.0077   23.3125
       5     -3.0365   23.3186  -15.6475    4.0077   48.6159  -11.7068
       6     -5.1145    8.9024    4.0179   23.3125  -11.7068   35.8485
-------------------------------------------------------------------------------


  Elastic Compliance Matrix: (Units=1/GPa)

-------------------------------------------------------------------------------
  Indices      1         2         3         4         5         6    
-------------------------------------------------------------------------------
       1    0.024480 -0.007989 -0.015742  0.014218 -0.001477 -0.002487
       2   -0.007989  0.039935 -0.022044 -0.019906 -0.026112 -0.004168
       3   -0.015742 -0.022044  0.047951  0.005206  0.025248  0.002713
       4    0.014218 -0.019906  0.005206  0.099616 -0.011028 -0.061994
       5   -0.001477 -0.026112  0.025248 -0.011028  0.048399  0.026421
       6   -0.002487 -0.004168  0.002713 -0.061994  0.026421  0.077215
-------------------------------------------------------------------------------

 Mechanical properties :

-------------------------------------------------------------------------------
  Convention :                    Reuss         Voigt         Hill
-------------------------------------------------------------------------------
  Bulk  Modulus (GPa)     =      48.03998      52.36094      50.20046
  Shear Modulus (GPa)     =      11.46563      29.96600      20.71581
-------------------------------------------------------------------------------
  Velocity S-wave (km/s)  =       4.18352       6.76328       5.62334
  Velocity P-wave (km/s)  =       9.83194      11.87082      10.89916
-------------------------------------------------------------------------------
  Compressibility (1/GPa) =    0.02081599
-------------------------------------------------------------------------------
  Stress axis :                     x             y             z
-------------------------------------------------------------------------------
  Youngs Moduli (GPa)     =      40.84912      25.04059      20.85449
-------------------------------------------------------------------------------
  Poissons Ratio (x)      =                     0.20006       0.32830
  Poissons Ratio (y)      =       0.32636                     0.45971
  Poissons Ratio (z)      =       0.64306       0.55199
-------------------------------------------------------------------------------


  Piezoelectric Strain Matrix: (Units=C/m**2)

-------------------------------------------------------------------------------
  Indices      1         2         3         4         5         6    
-------------------------------------------------------------------------------
       x    -0.00000  -0.00000  -0.00000   0.00000   0.00000   0.00000
       y     0.00000  -0.00000  -0.00000  -0.00000   0.00000  -0.00000
       z     0.00000  -0.00000   0.00000  -0.00000  -0.00000   0.00000
-------------------------------------------------------------------------------


  Piezoelectric Stress Matrix: (Units=10**-11 C/N)

-------------------------------------------------------------------------------
  Indices      1         2         3         4         5         6    
-------------------------------------------------------------------------------
       x    -0.00000  -0.00000  -0.00000   0.00000   0.00000   0.00000
       y     0.00000  -0.00000  -0.00000  -0.00000   0.00000  -0.00000
       z     0.00000  -0.00000   0.00000  -0.00000  -0.00001   0.00000
-------------------------------------------------------------------------------


  Static dielectric constant tensor : 

-------------------------------------------------------------------------------
              x         y         z
-------------------------------------------------------------------------------
       x     1.02532  -0.00228  -0.00135
       y    -0.00228   1.03592  -0.00028
       z    -0.00135  -0.00028   1.03622
--------------------------------------------------------------------------------

  Static refractive indices : 

-------------------------------------------------------------------------------
    1 =    1.01227      2 =    1.01803      3 =    1.01803
-------------------------------------------------------------------------------


  Time to end of optimisation =     814.5749 seconds


  Peak dynamic memory used =       1.64 MB 


  Timing analysis for GULP :

--------------------------------------------------------------------------------
  Task / Subroutine                                          Time (Seconds)
--------------------------------------------------------------------------------
  Calculation of reciprocal space energy and derivatives         47.2631
  Calculation of real space energy and derivatives              743.2823
  Sum of squares for fitting                                     18.1131
  Global summation overhead                                       0.6880
--------------------------------------------------------------------------------
  Total CPU time                                                814.5749
--------------------------------------------------------------------------------


  Dump file written as sb2te3.res                                              



  **** GULP has completed with 132 warnings - beware! ****

  Job Finished at 13:01.33 22nd June       2010                               

