********************************************************************************
*                       GENERAL UTILITY LATTICE PROGRAM                        *
*                                 Julian Gale                                  *
*                      Nanochemistry Research Institute                        *
*             Curtin University of Technology, Western Australia               *
********************************************************************************
* Version = 3.4.7 * Last modified =  21st July 2009                            *
********************************************************************************
*  fit          - perform fitting run                                          *
*  optimise     - perform optimisation run after fitting                       *
*  property     - calculate properties for final geometry                      *
*  fbfgs        - use full numerical Hessian in BFGS for fitting               *
********************************************************************************

  Job Started  at 17:59.45 21st June       2010                               

  Number of CPUs =     1


  Total number of configurations input =  58

********************************************************************************
*  Input for Configuration =   1                                               *
********************************************************************************

  Formula = Sb2Te3                                                      

  Number of irreducible atoms/shells =       5


  Total number atoms/shells =       5

  Dimensionality = 3               :  Bulk   



  Cartesian lattice vectors (Angstroms) :

       10.739800    0.000000    0.000000
        9.863930    4.248080    0.000000
        9.863930    2.033746    3.729619

  Cell parameters (Angstroms/Degrees):

  a =      10.7398    alpha =  23.3000
  b =      10.7398    beta  =  23.3000
  c =      10.7398    gamma =  23.3000

  Initial cell volume =         170.158355 Angs**3

  Temperature of configuration =  0.000     K 

  Pressure of configuration =         0.000 GPa 

  Fractional coordinates of asymmetric unit :

--------------------------------------------------------------------------------
   No.  Atomic       x           y          z         Charge      Occupancy
        Label      (Frac)      (Frac)     (Frac)        (e)         (Frac)  
--------------------------------------------------------------------------------
      1 Sb    c    0.401797    0.396797    0.396797      0.1090    1.000000    
      2 Sb    c    0.603203    0.603203    0.603203      0.1090    1.000000    
      3 Te1   c    0.000000    0.000000    0.000000      0.1600    1.000000    
      4 Te2   c    0.784571    0.784571    0.784571     -0.1890    1.000000    
      5 Te2   c    0.215429    0.215429    0.215429     -0.1890    1.000000    
--------------------------------------------------------------------------------



********************************************************************************
*  Input for Configuration =   2                                               *
********************************************************************************

  Formula = Sb2Te3                                                      

  Number of irreducible atoms/shells =       5


  Total number atoms/shells =       5

  Dimensionality = 3               :  Bulk   



  Cartesian lattice vectors (Angstroms) :

       10.739800    0.000000    0.000000
        9.863930    4.248080    0.000000
        9.863930    2.033746    3.729619

  Cell parameters (Angstroms/Degrees):

  a =      10.7398    alpha =  23.3000
  b =      10.7398    beta  =  23.3000
  c =      10.7398    gamma =  23.3000

  Initial cell volume =         170.158355 Angs**3

  Temperature of configuration =  0.000     K 

  Pressure of configuration =         0.000 GPa 

  Fractional coordinates of asymmetric unit :

--------------------------------------------------------------------------------
   No.  Atomic       x           y          z         Charge      Occupancy
        Label      (Frac)      (Frac)     (Frac)        (e)         (Frac)  
--------------------------------------------------------------------------------
      1 Sb    c    0.406797    0.396797    0.396797      0.1090    1.000000    
      2 Sb    c    0.603203    0.603203    0.603203      0.1090    1.000000    
      3 Te1   c    0.000000    0.000000    0.000000      0.1600    1.000000    
      4 Te2   c    0.784571    0.784571    0.784571     -0.1890    1.000000    
      5 Te2   c    0.215429    0.215429    0.215429     -0.1890    1.000000    
--------------------------------------------------------------------------------



********************************************************************************
*  Input for Configuration =   3                                               *
********************************************************************************

  Formula = Sb2Te3                                                      

  Number of irreducible atoms/shells =       5


  Total number atoms/shells =       5

  Dimensionality = 3               :  Bulk   



  Cartesian lattice vectors (Angstroms) :

       10.739800    0.000000    0.000000
        9.863930    4.248080    0.000000
        9.863930    2.033746    3.729619

  Cell parameters (Angstroms/Degrees):

  a =      10.7398    alpha =  23.3000
  b =      10.7398    beta  =  23.3000
  c =      10.7398    gamma =  23.3000

  Initial cell volume =         170.158355 Angs**3

  Temperature of configuration =  0.000     K 

  Pressure of configuration =         0.000 GPa 

  Fractional coordinates of asymmetric unit :

--------------------------------------------------------------------------------
   No.  Atomic       x           y          z         Charge      Occupancy
        Label      (Frac)      (Frac)     (Frac)        (e)         (Frac)  
--------------------------------------------------------------------------------
      1 Sb    c    0.411797    0.396797    0.396797      0.1090    1.000000    
      2 Sb    c    0.603203    0.603203    0.603203      0.1090    1.000000    
      3 Te1   c    0.000000    0.000000    0.000000      0.1600    1.000000    
      4 Te2   c    0.784571    0.784571    0.784571     -0.1890    1.000000    
      5 Te2   c    0.215429    0.215429    0.215429     -0.1890    1.000000    
--------------------------------------------------------------------------------



********************************************************************************
*  Input for Configuration =   4                                               *
********************************************************************************

  Formula = Sb2Te3                                                      

  Number of irreducible atoms/shells =       5


  Total number atoms/shells =       5

  Dimensionality = 3               :  Bulk   



  Cartesian lattice vectors (Angstroms) :

       10.739800    0.000000    0.000000
        9.863930    4.248080    0.000000
        9.863930    2.033746    3.729619

  Cell parameters (Angstroms/Degrees):

  a =      10.7398    alpha =  23.3000
  b =      10.7398    beta  =  23.3000
  c =      10.7398    gamma =  23.3000

  Initial cell volume =         170.158355 Angs**3

  Temperature of configuration =  0.000     K 

  Pressure of configuration =         0.000 GPa 

  Fractional coordinates of asymmetric unit :

--------------------------------------------------------------------------------
   No.  Atomic       x           y          z         Charge      Occupancy
        Label      (Frac)      (Frac)     (Frac)        (e)         (Frac)  
--------------------------------------------------------------------------------
      1 Sb    c    0.416797    0.396797    0.396797      0.1090    1.000000    
      2 Sb    c    0.603203    0.603203    0.603203      0.1090    1.000000    
      3 Te1   c    0.000000    0.000000    0.000000      0.1600    1.000000    
      4 Te2   c    0.784571    0.784571    0.784571     -0.1890    1.000000    
      5 Te2   c    0.215429    0.215429    0.215429     -0.1890    1.000000    
--------------------------------------------------------------------------------



********************************************************************************
*  Input for Configuration =   5                                               *
********************************************************************************

  Formula = Sb2Te3                                                      

  Number of irreducible atoms/shells =       5


  Total number atoms/shells =       5

  Dimensionality = 3               :  Bulk   



  Cartesian lattice vectors (Angstroms) :

       10.739800    0.000000    0.000000
        9.863930    4.248080    0.000000
        9.863930    2.033746    3.729619

  Cell parameters (Angstroms/Degrees):

  a =      10.7398    alpha =  23.3000
  b =      10.7398    beta  =  23.3000
  c =      10.7398    gamma =  23.3000

  Initial cell volume =         170.158355 Angs**3

  Temperature of configuration =  0.000     K 

  Pressure of configuration =         0.000 GPa 

  Fractional coordinates of asymmetric unit :

--------------------------------------------------------------------------------
   No.  Atomic       x           y          z         Charge      Occupancy
        Label      (Frac)      (Frac)     (Frac)        (e)         (Frac)  
--------------------------------------------------------------------------------
      1 Sb    c    0.421797    0.396797    0.396797      0.1090    1.000000    
      2 Sb    c    0.603203    0.603203    0.603203      0.1090    1.000000    
      3 Te1   c    0.000000    0.000000    0.000000      0.1600    1.000000    
      4 Te2   c    0.784571    0.784571    0.784571     -0.1890    1.000000    
      5 Te2   c    0.215429    0.215429    0.215429     -0.1890    1.000000    
--------------------------------------------------------------------------------



********************************************************************************
*  Input for Configuration =   6                                               *
********************************************************************************

  Formula = Sb2Te3                                                      

  Number of irreducible atoms/shells =       5


  Total number atoms/shells =       5

  Dimensionality = 3               :  Bulk   



  Cartesian lattice vectors (Angstroms) :

       10.739800    0.000000    0.000000
        9.863930    4.248080    0.000000
        9.863930    2.033746    3.729619

  Cell parameters (Angstroms/Degrees):

  a =      10.7398    alpha =  23.3000
  b =      10.7398    beta  =  23.3000
  c =      10.7398    gamma =  23.3000

  Initial cell volume =         170.158355 Angs**3

  Temperature of configuration =  0.000     K 

  Pressure of configuration =         0.000 GPa 

  Fractional coordinates of asymmetric unit :

--------------------------------------------------------------------------------
   No.  Atomic       x           y          z         Charge      Occupancy
        Label      (Frac)      (Frac)     (Frac)        (e)         (Frac)  
--------------------------------------------------------------------------------
      1 Sb    c    0.396797    0.401797    0.396797      0.1090    1.000000    
      2 Sb    c    0.603203    0.603203    0.603203      0.1090    1.000000    
      3 Te1   c    0.000000    0.000000    0.000000      0.1600    1.000000    
      4 Te2   c    0.784571    0.784571    0.784571     -0.1890    1.000000    
      5 Te2   c    0.215429    0.215429    0.215429     -0.1890    1.000000    
--------------------------------------------------------------------------------



********************************************************************************
*  Input for Configuration =   7                                               *
********************************************************************************

  Formula = Sb2Te3                                                      

  Number of irreducible atoms/shells =       5


  Total number atoms/shells =       5

  Dimensionality = 3               :  Bulk   



  Cartesian lattice vectors (Angstroms) :

       10.739800    0.000000    0.000000
        9.863930    4.248080    0.000000
        9.863930    2.033746    3.729619

  Cell parameters (Angstroms/Degrees):

  a =      10.7398    alpha =  23.3000
  b =      10.7398    beta  =  23.3000
  c =      10.7398    gamma =  23.3000

  Initial cell volume =         170.158355 Angs**3

  Temperature of configuration =  0.000     K 

  Pressure of configuration =         0.000 GPa 

  Fractional coordinates of asymmetric unit :

--------------------------------------------------------------------------------
   No.  Atomic       x           y          z         Charge      Occupancy
        Label      (Frac)      (Frac)     (Frac)        (e)         (Frac)  
--------------------------------------------------------------------------------
      1 Sb    c    0.396797    0.406797    0.396797      0.1090    1.000000    
      2 Sb    c    0.603203    0.603203    0.603203      0.1090    1.000000    
      3 Te1   c    0.000000    0.000000    0.000000      0.1600    1.000000    
      4 Te2   c    0.784571    0.784571    0.784571     -0.1890    1.000000    
      5 Te2   c    0.215429    0.215429    0.215429     -0.1890    1.000000    
--------------------------------------------------------------------------------



********************************************************************************
*  Input for Configuration =   8                                               *
********************************************************************************

  Formula = Sb2Te3                                                      

  Number of irreducible atoms/shells =       5


  Total number atoms/shells =       5

  Dimensionality = 3               :  Bulk   



  Cartesian lattice vectors (Angstroms) :

       10.739800    0.000000    0.000000
        9.863930    4.248080    0.000000
        9.863930    2.033746    3.729619

  Cell parameters (Angstroms/Degrees):

  a =      10.7398    alpha =  23.3000
  b =      10.7398    beta  =  23.3000
  c =      10.7398    gamma =  23.3000

  Initial cell volume =         170.158355 Angs**3

  Temperature of configuration =  0.000     K 

  Pressure of configuration =         0.000 GPa 

  Fractional coordinates of asymmetric unit :

--------------------------------------------------------------------------------
   No.  Atomic       x           y          z         Charge      Occupancy
        Label      (Frac)      (Frac)     (Frac)        (e)         (Frac)  
--------------------------------------------------------------------------------
      1 Sb    c    0.396797    0.411797    0.396797      0.1090    1.000000    
      2 Sb    c    0.603203    0.603203    0.603203      0.1090    1.000000    
      3 Te1   c    0.000000    0.000000    0.000000      0.1600    1.000000    
      4 Te2   c    0.784571    0.784571    0.784571     -0.1890    1.000000    
      5 Te2   c    0.215429    0.215429    0.215429     -0.1890    1.000000    
--------------------------------------------------------------------------------



********************************************************************************
*  Input for Configuration =   9                                               *
********************************************************************************

  Formula = Sb2Te3                                                      

  Number of irreducible atoms/shells =       5


  Total number atoms/shells =       5

  Dimensionality = 3               :  Bulk   



  Cartesian lattice vectors (Angstroms) :

       10.739800    0.000000    0.000000
        9.863930    4.248080    0.000000
        9.863930    2.033746    3.729619

  Cell parameters (Angstroms/Degrees):

  a =      10.7398    alpha =  23.3000
  b =      10.7398    beta  =  23.3000
  c =      10.7398    gamma =  23.3000

  Initial cell volume =         170.158355 Angs**3

  Temperature of configuration =  0.000     K 

  Pressure of configuration =         0.000 GPa 

  Fractional coordinates of asymmetric unit :

--------------------------------------------------------------------------------
   No.  Atomic       x           y          z         Charge      Occupancy
        Label      (Frac)      (Frac)     (Frac)        (e)         (Frac)  
--------------------------------------------------------------------------------
      1 Sb    c    0.396797    0.416797    0.396797      0.1090    1.000000    
      2 Sb    c    0.603203    0.603203    0.603203      0.1090    1.000000    
      3 Te1   c    0.000000    0.000000    0.000000      0.1600    1.000000    
      4 Te2   c    0.784571    0.784571    0.784571     -0.1890    1.000000    
      5 Te2   c    0.215429    0.215429    0.215429     -0.1890    1.000000    
--------------------------------------------------------------------------------



********************************************************************************
*  Input for Configuration =  10                                               *
********************************************************************************

  Formula = Sb2Te3                                                      

  Number of irreducible atoms/shells =       5


  Total number atoms/shells =       5

  Dimensionality = 3               :  Bulk   



  Cartesian lattice vectors (Angstroms) :

       10.739800    0.000000    0.000000
        9.863930    4.248080    0.000000
        9.863930    2.033746    3.729619

  Cell parameters (Angstroms/Degrees):

  a =      10.7398    alpha =  23.3000
  b =      10.7398    beta  =  23.3000
  c =      10.7398    gamma =  23.3000

  Initial cell volume =         170.158355 Angs**3

  Temperature of configuration =  0.000     K 

  Pressure of configuration =         0.000 GPa 

  Fractional coordinates of asymmetric unit :

--------------------------------------------------------------------------------
   No.  Atomic       x           y          z         Charge      Occupancy
        Label      (Frac)      (Frac)     (Frac)        (e)         (Frac)  
--------------------------------------------------------------------------------
      1 Sb    c    0.396797    0.421797    0.396797      0.1090    1.000000    
      2 Sb    c    0.603203    0.603203    0.603203      0.1090    1.000000    
      3 Te1   c    0.000000    0.000000    0.000000      0.1600    1.000000    
      4 Te2   c    0.784571    0.784571    0.784571     -0.1890    1.000000    
      5 Te2   c    0.215429    0.215429    0.215429     -0.1890    1.000000    
--------------------------------------------------------------------------------



********************************************************************************
*  Input for Configuration =  11                                               *
********************************************************************************

  Formula = Sb2Te3                                                      

  Number of irreducible atoms/shells =       5


  Total number atoms/shells =       5

  Dimensionality = 3               :  Bulk   



  Cartesian lattice vectors (Angstroms) :

       10.739800    0.000000    0.000000
        9.863930    4.248080    0.000000
        9.863930    2.033746    3.729619

  Cell parameters (Angstroms/Degrees):

  a =      10.7398    alpha =  23.3000
  b =      10.7398    beta  =  23.3000
  c =      10.7398    gamma =  23.3000

  Initial cell volume =         170.158355 Angs**3

  Temperature of configuration =  0.000     K 

  Pressure of configuration =         0.000 GPa 

  Fractional coordinates of asymmetric unit :

--------------------------------------------------------------------------------
   No.  Atomic       x           y          z         Charge      Occupancy
        Label      (Frac)      (Frac)     (Frac)        (e)         (Frac)  
--------------------------------------------------------------------------------
      1 Sb    c    0.396797    0.396797    0.401797      0.1090    1.000000    
      2 Sb    c    0.603203    0.603203    0.603203      0.1090    1.000000    
      3 Te1   c    0.000000    0.000000    0.000000      0.1600    1.000000    
      4 Te2   c    0.784571    0.784571    0.784571     -0.1890    1.000000    
      5 Te2   c    0.215429    0.215429    0.215429     -0.1890    1.000000    
--------------------------------------------------------------------------------



********************************************************************************
*  Input for Configuration =  12                                               *
********************************************************************************

  Formula = Sb2Te3                                                      

  Number of irreducible atoms/shells =       5


  Total number atoms/shells =       5

  Dimensionality = 3               :  Bulk   



  Cartesian lattice vectors (Angstroms) :

       10.739800    0.000000    0.000000
        9.863930    4.248080    0.000000
        9.863930    2.033746    3.729619

  Cell parameters (Angstroms/Degrees):

  a =      10.7398    alpha =  23.3000
  b =      10.7398    beta  =  23.3000
  c =      10.7398    gamma =  23.3000

  Initial cell volume =         170.158355 Angs**3

  Temperature of configuration =  0.000     K 

  Pressure of configuration =         0.000 GPa 

  Fractional coordinates of asymmetric unit :

--------------------------------------------------------------------------------
   No.  Atomic       x           y          z         Charge      Occupancy
        Label      (Frac)      (Frac)     (Frac)        (e)         (Frac)  
--------------------------------------------------------------------------------
      1 Sb    c    0.396797    0.396797    0.406797      0.1090    1.000000    
      2 Sb    c    0.603203    0.603203    0.603203      0.1090    1.000000    
      3 Te1   c    0.000000    0.000000    0.000000      0.1600    1.000000    
      4 Te2   c    0.784571    0.784571    0.784571     -0.1890    1.000000    
      5 Te2   c    0.215429    0.215429    0.215429     -0.1890    1.000000    
--------------------------------------------------------------------------------



********************************************************************************
*  Input for Configuration =  13                                               *
********************************************************************************

  Formula = Sb2Te3                                                      

  Number of irreducible atoms/shells =       5


  Total number atoms/shells =       5

  Dimensionality = 3               :  Bulk   



  Cartesian lattice vectors (Angstroms) :

       10.739800    0.000000    0.000000
        9.863930    4.248080    0.000000
        9.863930    2.033746    3.729619

  Cell parameters (Angstroms/Degrees):

  a =      10.7398    alpha =  23.3000
  b =      10.7398    beta  =  23.3000
  c =      10.7398    gamma =  23.3000

  Initial cell volume =         170.158355 Angs**3

  Temperature of configuration =  0.000     K 

  Pressure of configuration =         0.000 GPa 

  Fractional coordinates of asymmetric unit :

--------------------------------------------------------------------------------
   No.  Atomic       x           y          z         Charge      Occupancy
        Label      (Frac)      (Frac)     (Frac)        (e)         (Frac)  
--------------------------------------------------------------------------------
      1 Sb    c    0.396797    0.396797    0.411797      0.1090    1.000000    
      2 Sb    c    0.603203    0.603203    0.603203      0.1090    1.000000    
      3 Te1   c    0.000000    0.000000    0.000000      0.1600    1.000000    
      4 Te2   c    0.784571    0.784571    0.784571     -0.1890    1.000000    
      5 Te2   c    0.215429    0.215429    0.215429     -0.1890    1.000000    
--------------------------------------------------------------------------------



********************************************************************************
*  Input for Configuration =  14                                               *
********************************************************************************

  Formula = Sb2Te3                                                      

  Number of irreducible atoms/shells =       5


  Total number atoms/shells =       5

  Dimensionality = 3               :  Bulk   



  Cartesian lattice vectors (Angstroms) :

       10.739800    0.000000    0.000000
        9.863930    4.248080    0.000000
        9.863930    2.033746    3.729619

  Cell parameters (Angstroms/Degrees):

  a =      10.7398    alpha =  23.3000
  b =      10.7398    beta  =  23.3000
  c =      10.7398    gamma =  23.3000

  Initial cell volume =         170.158355 Angs**3

  Temperature of configuration =  0.000     K 

  Pressure of configuration =         0.000 GPa 

  Fractional coordinates of asymmetric unit :

--------------------------------------------------------------------------------
   No.  Atomic       x           y          z         Charge      Occupancy
        Label      (Frac)      (Frac)     (Frac)        (e)         (Frac)  
--------------------------------------------------------------------------------
      1 Sb    c    0.396797    0.396797    0.416797      0.1090    1.000000    
      2 Sb    c    0.603203    0.603203    0.603203      0.1090    1.000000    
      3 Te1   c    0.000000    0.000000    0.000000      0.1600    1.000000    
      4 Te2   c    0.784571    0.784571    0.784571     -0.1890    1.000000    
      5 Te2   c    0.215429    0.215429    0.215429     -0.1890    1.000000    
--------------------------------------------------------------------------------



********************************************************************************
*  Input for Configuration =  15                                               *
********************************************************************************

  Formula = Sb2Te3                                                      

  Number of irreducible atoms/shells =       5


  Total number atoms/shells =       5

  Dimensionality = 3               :  Bulk   



  Cartesian lattice vectors (Angstroms) :

       10.739800    0.000000    0.000000
        9.863930    4.248080    0.000000
        9.863930    2.033746    3.729619

  Cell parameters (Angstroms/Degrees):

  a =      10.7398    alpha =  23.3000
  b =      10.7398    beta  =  23.3000
  c =      10.7398    gamma =  23.3000

  Initial cell volume =         170.158355 Angs**3

  Temperature of configuration =  0.000     K 

  Pressure of configuration =         0.000 GPa 

  Fractional coordinates of asymmetric unit :

--------------------------------------------------------------------------------
   No.  Atomic       x           y          z         Charge      Occupancy
        Label      (Frac)      (Frac)     (Frac)        (e)         (Frac)  
--------------------------------------------------------------------------------
      1 Sb    c    0.396797    0.396797    0.421797      0.1090    1.000000    
      2 Sb    c    0.603203    0.603203    0.603203      0.1090    1.000000    
      3 Te1   c    0.000000    0.000000    0.000000      0.1600    1.000000    
      4 Te2   c    0.784571    0.784571    0.784571     -0.1890    1.000000    
      5 Te2   c    0.215429    0.215429    0.215429     -0.1890    1.000000    
--------------------------------------------------------------------------------



********************************************************************************
*  Input for Configuration =  16                                               *
********************************************************************************

  Formula = Sb2Te3                                                      

  Number of irreducible atoms/shells =       5


  Total number atoms/shells =       5

  Dimensionality = 3               :  Bulk   



  Cartesian lattice vectors (Angstroms) :

       10.739800    0.000000    0.000000
        9.863930    4.248080    0.000000
        9.863930    2.033746    3.729619

  Cell parameters (Angstroms/Degrees):

  a =      10.7398    alpha =  23.3000
  b =      10.7398    beta  =  23.3000
  c =      10.7398    gamma =  23.3000

  Initial cell volume =         170.158355 Angs**3

  Temperature of configuration =  0.000     K 

  Pressure of configuration =         0.000 GPa 

  Fractional coordinates of asymmetric unit :

--------------------------------------------------------------------------------
   No.  Atomic       x           y          z         Charge      Occupancy
        Label      (Frac)      (Frac)     (Frac)        (e)         (Frac)  
--------------------------------------------------------------------------------
      1 Sb    c    0.396797    0.396797    0.396797      0.1090    1.000000    
      2 Sb    c    0.603203    0.603203    0.603203      0.1090    1.000000    
      3 Te1   c    0.005000    0.000000    0.000000      0.1600    1.000000    
      4 Te2   c    0.784571    0.784571    0.784571     -0.1890    1.000000    
      5 Te2   c    0.215429    0.215429    0.215429     -0.1890    1.000000    
--------------------------------------------------------------------------------



********************************************************************************
*  Input for Configuration =  17                                               *
********************************************************************************

  Formula = Sb2Te3                                                      

  Number of irreducible atoms/shells =       5


  Total number atoms/shells =       5

  Dimensionality = 3               :  Bulk   



  Cartesian lattice vectors (Angstroms) :

       10.739800    0.000000    0.000000
        9.863930    4.248080    0.000000
        9.863930    2.033746    3.729619

  Cell parameters (Angstroms/Degrees):

  a =      10.7398    alpha =  23.3000
  b =      10.7398    beta  =  23.3000
  c =      10.7398    gamma =  23.3000

  Initial cell volume =         170.158355 Angs**3

  Temperature of configuration =  0.000     K 

  Pressure of configuration =         0.000 GPa 

  Fractional coordinates of asymmetric unit :

--------------------------------------------------------------------------------
   No.  Atomic       x           y          z         Charge      Occupancy
        Label      (Frac)      (Frac)     (Frac)        (e)         (Frac)  
--------------------------------------------------------------------------------
      1 Sb    c    0.396797    0.396797    0.396797      0.1090    1.000000    
      2 Sb    c    0.603203    0.603203    0.603203      0.1090    1.000000    
      3 Te1   c    0.010000    0.000000    0.000000      0.1600    1.000000    
      4 Te2   c    0.784571    0.784571    0.784571     -0.1890    1.000000    
      5 Te2   c    0.215429    0.215429    0.215429     -0.1890    1.000000    
--------------------------------------------------------------------------------



********************************************************************************
*  Input for Configuration =  18                                               *
********************************************************************************

  Formula = Sb2Te3                                                      

  Number of irreducible atoms/shells =       5


  Total number atoms/shells =       5

  Dimensionality = 3               :  Bulk   



  Cartesian lattice vectors (Angstroms) :

       10.739800    0.000000    0.000000
        9.863930    4.248080    0.000000
        9.863930    2.033746    3.729619

  Cell parameters (Angstroms/Degrees):

  a =      10.7398    alpha =  23.3000
  b =      10.7398    beta  =  23.3000
  c =      10.7398    gamma =  23.3000

  Initial cell volume =         170.158355 Angs**3

  Temperature of configuration =  0.000     K 

  Pressure of configuration =         0.000 GPa 

  Fractional coordinates of asymmetric unit :

--------------------------------------------------------------------------------
   No.  Atomic       x           y          z         Charge      Occupancy
        Label      (Frac)      (Frac)     (Frac)        (e)         (Frac)  
--------------------------------------------------------------------------------
      1 Sb    c    0.396797    0.396797    0.396797      0.1090    1.000000    
      2 Sb    c    0.603203    0.603203    0.603203      0.1090    1.000000    
      3 Te1   c    0.015000    0.000000    0.000000      0.1600    1.000000    
      4 Te2   c    0.784571    0.784571    0.784571     -0.1890    1.000000    
      5 Te2   c    0.215429    0.215429    0.215429     -0.1890    1.000000    
--------------------------------------------------------------------------------



********************************************************************************
*  Input for Configuration =  19                                               *
********************************************************************************

  Formula = Sb2Te3                                                      

  Number of irreducible atoms/shells =       5


  Total number atoms/shells =       5

  Dimensionality = 3               :  Bulk   



  Cartesian lattice vectors (Angstroms) :

       10.739800    0.000000    0.000000
        9.863930    4.248080    0.000000
        9.863930    2.033746    3.729619

  Cell parameters (Angstroms/Degrees):

  a =      10.7398    alpha =  23.3000
  b =      10.7398    beta  =  23.3000
  c =      10.7398    gamma =  23.3000

  Initial cell volume =         170.158355 Angs**3

  Temperature of configuration =  0.000     K 

  Pressure of configuration =         0.000 GPa 

  Fractional coordinates of asymmetric unit :

--------------------------------------------------------------------------------
   No.  Atomic       x           y          z         Charge      Occupancy
        Label      (Frac)      (Frac)     (Frac)        (e)         (Frac)  
--------------------------------------------------------------------------------
      1 Sb    c    0.396797    0.396797    0.396797      0.1090    1.000000    
      2 Sb    c    0.603203    0.603203    0.603203      0.1090    1.000000    
      3 Te1   c    0.020000    0.000000    0.000000      0.1600    1.000000    
      4 Te2   c    0.784571    0.784571    0.784571     -0.1890    1.000000    
      5 Te2   c    0.215429    0.215429    0.215429     -0.1890    1.000000    
--------------------------------------------------------------------------------



********************************************************************************
*  Input for Configuration =  20                                               *
********************************************************************************

  Formula = Sb2Te3                                                      

  Number of irreducible atoms/shells =       5


  Total number atoms/shells =       5

  Dimensionality = 3               :  Bulk   



  Cartesian lattice vectors (Angstroms) :

       10.739800    0.000000    0.000000
        9.863930    4.248080    0.000000
        9.863930    2.033746    3.729619

  Cell parameters (Angstroms/Degrees):

  a =      10.7398    alpha =  23.3000
  b =      10.7398    beta  =  23.3000
  c =      10.7398    gamma =  23.3000

  Initial cell volume =         170.158355 Angs**3

  Temperature of configuration =  0.000     K 

  Pressure of configuration =         0.000 GPa 

  Fractional coordinates of asymmetric unit :

--------------------------------------------------------------------------------
   No.  Atomic       x           y          z         Charge      Occupancy
        Label      (Frac)      (Frac)     (Frac)        (e)         (Frac)  
--------------------------------------------------------------------------------
      1 Sb    c    0.396797    0.396797    0.396797      0.1090    1.000000    
      2 Sb    c    0.603203    0.603203    0.603203      0.1090    1.000000    
      3 Te1   c    0.025000    0.000000    0.000000      0.1600    1.000000    
      4 Te2   c    0.784571    0.784571    0.784571     -0.1890    1.000000    
      5 Te2   c    0.215429    0.215429    0.215429     -0.1890    1.000000    
--------------------------------------------------------------------------------



********************************************************************************
*  Input for Configuration =  21                                               *
********************************************************************************

  Formula = Sb2Te3                                                      

  Number of irreducible atoms/shells =       5


  Total number atoms/shells =       5

  Dimensionality = 3               :  Bulk   



  Cartesian lattice vectors (Angstroms) :

       10.739800    0.000000    0.000000
        9.863930    4.248080    0.000000
        9.863930    2.033746    3.729619

  Cell parameters (Angstroms/Degrees):

  a =      10.7398    alpha =  23.3000
  b =      10.7398    beta  =  23.3000
  c =      10.7398    gamma =  23.3000

  Initial cell volume =         170.158355 Angs**3

  Temperature of configuration =  0.000     K 

  Pressure of configuration =         0.000 GPa 

  Fractional coordinates of asymmetric unit :

--------------------------------------------------------------------------------
   No.  Atomic       x           y          z         Charge      Occupancy
        Label      (Frac)      (Frac)     (Frac)        (e)         (Frac)  
--------------------------------------------------------------------------------
      1 Sb    c    0.396797    0.396797    0.396797      0.1090    1.000000    
      2 Sb    c    0.603203    0.603203    0.603203      0.1090    1.000000    
      3 Te1   c    0.000000    0.005000    0.000000      0.1600    1.000000    
      4 Te2   c    0.784571    0.784571    0.784571     -0.1890    1.000000    
      5 Te2   c    0.215429    0.215429    0.215429     -0.1890    1.000000    
--------------------------------------------------------------------------------



********************************************************************************
*  Input for Configuration =  22                                               *
********************************************************************************

  Formula = Sb2Te3                                                      

  Number of irreducible atoms/shells =       5


  Total number atoms/shells =       5

  Dimensionality = 3               :  Bulk   



  Cartesian lattice vectors (Angstroms) :

       10.739800    0.000000    0.000000
        9.863930    4.248080    0.000000
        9.863930    2.033746    3.729619

  Cell parameters (Angstroms/Degrees):

  a =      10.7398    alpha =  23.3000
  b =      10.7398    beta  =  23.3000
  c =      10.7398    gamma =  23.3000

  Initial cell volume =         170.158355 Angs**3

  Temperature of configuration =  0.000     K 

  Pressure of configuration =         0.000 GPa 

  Fractional coordinates of asymmetric unit :

--------------------------------------------------------------------------------
   No.  Atomic       x           y          z         Charge      Occupancy
        Label      (Frac)      (Frac)     (Frac)        (e)         (Frac)  
--------------------------------------------------------------------------------
      1 Sb    c    0.396797    0.396797    0.396797      0.1090    1.000000    
      2 Sb    c    0.603203    0.603203    0.603203      0.1090    1.000000    
      3 Te1   c    0.000000    0.010000    0.000000      0.1600    1.000000    
      4 Te2   c    0.784571    0.784571    0.784571     -0.1890    1.000000    
      5 Te2   c    0.215429    0.215429    0.215429     -0.1890    1.000000    
--------------------------------------------------------------------------------



********************************************************************************
*  Input for Configuration =  23                                               *
********************************************************************************

  Formula = Sb2Te3                                                      

  Number of irreducible atoms/shells =       5


  Total number atoms/shells =       5

  Dimensionality = 3               :  Bulk   



  Cartesian lattice vectors (Angstroms) :

       10.739800    0.000000    0.000000
        9.863930    4.248080    0.000000
        9.863930    2.033746    3.729619

  Cell parameters (Angstroms/Degrees):

  a =      10.7398    alpha =  23.3000
  b =      10.7398    beta  =  23.3000
  c =      10.7398    gamma =  23.3000

  Initial cell volume =         170.158355 Angs**3

  Temperature of configuration =  0.000     K 

  Pressure of configuration =         0.000 GPa 

  Fractional coordinates of asymmetric unit :

--------------------------------------------------------------------------------
   No.  Atomic       x           y          z         Charge      Occupancy
        Label      (Frac)      (Frac)     (Frac)        (e)         (Frac)  
--------------------------------------------------------------------------------
      1 Sb    c    0.396797    0.396797    0.396797      0.1090    1.000000    
      2 Sb    c    0.603203    0.603203    0.603203      0.1090    1.000000    
      3 Te1   c    0.000000    0.015000    0.000000      0.1600    1.000000    
      4 Te2   c    0.784571    0.784571    0.784571     -0.1890    1.000000    
      5 Te2   c    0.215429    0.215429    0.215429     -0.1890    1.000000    
--------------------------------------------------------------------------------



********************************************************************************
*  Input for Configuration =  24                                               *
********************************************************************************

  Formula = Sb2Te3                                                      

  Number of irreducible atoms/shells =       5


  Total number atoms/shells =       5

  Dimensionality = 3               :  Bulk   



  Cartesian lattice vectors (Angstroms) :

       10.739800    0.000000    0.000000
        9.863930    4.248080    0.000000
        9.863930    2.033746    3.729619

  Cell parameters (Angstroms/Degrees):

  a =      10.7398    alpha =  23.3000
  b =      10.7398    beta  =  23.3000
  c =      10.7398    gamma =  23.3000

  Initial cell volume =         170.158355 Angs**3

  Temperature of configuration =  0.000     K 

  Pressure of configuration =         0.000 GPa 

  Fractional coordinates of asymmetric unit :

--------------------------------------------------------------------------------
   No.  Atomic       x           y          z         Charge      Occupancy
        Label      (Frac)      (Frac)     (Frac)        (e)         (Frac)  
--------------------------------------------------------------------------------
      1 Sb    c    0.396797    0.396797    0.396797      0.1090    1.000000    
      2 Sb    c    0.603203    0.603203    0.603203      0.1090    1.000000    
      3 Te1   c    0.000000    0.020000    0.000000      0.1600    1.000000    
      4 Te2   c    0.784571    0.784571    0.784571     -0.1890    1.000000    
      5 Te2   c    0.215429    0.215429    0.215429     -0.1890    1.000000    
--------------------------------------------------------------------------------



********************************************************************************
*  Input for Configuration =  25                                               *
********************************************************************************

  Formula = Sb2Te3                                                      

  Number of irreducible atoms/shells =       5


  Total number atoms/shells =       5

  Dimensionality = 3               :  Bulk   



  Cartesian lattice vectors (Angstroms) :

       10.739800    0.000000    0.000000
        9.863930    4.248080    0.000000
        9.863930    2.033746    3.729619

  Cell parameters (Angstroms/Degrees):

  a =      10.7398    alpha =  23.3000
  b =      10.7398    beta  =  23.3000
  c =      10.7398    gamma =  23.3000

  Initial cell volume =         170.158355 Angs**3

  Temperature of configuration =  0.000     K 

  Pressure of configuration =         0.000 GPa 

  Fractional coordinates of asymmetric unit :

--------------------------------------------------------------------------------
   No.  Atomic       x           y          z         Charge      Occupancy
        Label      (Frac)      (Frac)     (Frac)        (e)         (Frac)  
--------------------------------------------------------------------------------
      1 Sb    c    0.396797    0.396797    0.396797      0.1090    1.000000    
      2 Sb    c    0.603203    0.603203    0.603203      0.1090    1.000000    
      3 Te1   c    0.000000    0.025000    0.000000      0.1600    1.000000    
      4 Te2   c    0.784571    0.784571    0.784571     -0.1890    1.000000    
      5 Te2   c    0.215429    0.215429    0.215429     -0.1890    1.000000    
--------------------------------------------------------------------------------



********************************************************************************
*  Input for Configuration =  26                                               *
********************************************************************************

  Formula = Sb2Te3                                                      

  Number of irreducible atoms/shells =       5


  Total number atoms/shells =       5

  Dimensionality = 3               :  Bulk   



  Cartesian lattice vectors (Angstroms) :

       10.739800    0.000000    0.000000
        9.863930    4.248080    0.000000
        9.863930    2.033746    3.729619

  Cell parameters (Angstroms/Degrees):

  a =      10.7398    alpha =  23.3000
  b =      10.7398    beta  =  23.3000
  c =      10.7398    gamma =  23.3000

  Initial cell volume =         170.158355 Angs**3

  Temperature of configuration =  0.000     K 

  Pressure of configuration =         0.000 GPa 

  Fractional coordinates of asymmetric unit :

--------------------------------------------------------------------------------
   No.  Atomic       x           y          z         Charge      Occupancy
        Label      (Frac)      (Frac)     (Frac)        (e)         (Frac)  
--------------------------------------------------------------------------------
      1 Sb    c    0.396797    0.396797    0.396797      0.1090    1.000000    
      2 Sb    c    0.603203    0.603203    0.603203      0.1090    1.000000    
      3 Te1   c    0.000000    0.000000    0.005000      0.1600    1.000000    
      4 Te2   c    0.784571    0.784571    0.784571     -0.1890    1.000000    
      5 Te2   c    0.215429    0.215429    0.215429     -0.1890    1.000000    
--------------------------------------------------------------------------------



********************************************************************************
*  Input for Configuration =  27                                               *
********************************************************************************

  Formula = Sb2Te3                                                      

  Number of irreducible atoms/shells =       5


  Total number atoms/shells =       5

  Dimensionality = 3               :  Bulk   



  Cartesian lattice vectors (Angstroms) :

       10.739800    0.000000    0.000000
        9.863930    4.248080    0.000000
        9.863930    2.033746    3.729619

  Cell parameters (Angstroms/Degrees):

  a =      10.7398    alpha =  23.3000
  b =      10.7398    beta  =  23.3000
  c =      10.7398    gamma =  23.3000

  Initial cell volume =         170.158355 Angs**3

  Temperature of configuration =  0.000     K 

  Pressure of configuration =         0.000 GPa 

  Fractional coordinates of asymmetric unit :

--------------------------------------------------------------------------------
   No.  Atomic       x           y          z         Charge      Occupancy
        Label      (Frac)      (Frac)     (Frac)        (e)         (Frac)  
--------------------------------------------------------------------------------
      1 Sb    c    0.396797    0.396797    0.396797      0.1090    1.000000    
      2 Sb    c    0.603203    0.603203    0.603203      0.1090    1.000000    
      3 Te1   c    0.000000    0.000000    0.010000      0.1600    1.000000    
      4 Te2   c    0.784571    0.784571    0.784571     -0.1890    1.000000    
      5 Te2   c    0.215429    0.215429    0.215429     -0.1890    1.000000    
--------------------------------------------------------------------------------



********************************************************************************
*  Input for Configuration =  28                                               *
********************************************************************************

  Formula = Sb2Te3                                                      

  Number of irreducible atoms/shells =       5


  Total number atoms/shells =       5

  Dimensionality = 3               :  Bulk   



  Cartesian lattice vectors (Angstroms) :

       10.739800    0.000000    0.000000
        9.863930    4.248080    0.000000
        9.863930    2.033746    3.729619

  Cell parameters (Angstroms/Degrees):

  a =      10.7398    alpha =  23.3000
  b =      10.7398    beta  =  23.3000
  c =      10.7398    gamma =  23.3000

  Initial cell volume =         170.158355 Angs**3

  Temperature of configuration =  0.000     K 

  Pressure of configuration =         0.000 GPa 

  Fractional coordinates of asymmetric unit :

--------------------------------------------------------------------------------
   No.  Atomic       x           y          z         Charge      Occupancy
        Label      (Frac)      (Frac)     (Frac)        (e)         (Frac)  
--------------------------------------------------------------------------------
      1 Sb    c    0.396797    0.396797    0.396797      0.1090    1.000000    
      2 Sb    c    0.603203    0.603203    0.603203      0.1090    1.000000    
      3 Te1   c    0.000000    0.000000    0.015000      0.1600    1.000000    
      4 Te2   c    0.784571    0.784571    0.784571     -0.1890    1.000000    
      5 Te2   c    0.215429    0.215429    0.215429     -0.1890    1.000000    
--------------------------------------------------------------------------------



********************************************************************************
*  Input for Configuration =  29                                               *
********************************************************************************

  Formula = Sb2Te3                                                      

  Number of irreducible atoms/shells =       5


  Total number atoms/shells =       5

  Dimensionality = 3               :  Bulk   



  Cartesian lattice vectors (Angstroms) :

       10.739800    0.000000    0.000000
        9.863930    4.248080    0.000000
        9.863930    2.033746    3.729619

  Cell parameters (Angstroms/Degrees):

  a =      10.7398    alpha =  23.3000
  b =      10.7398    beta  =  23.3000
  c =      10.7398    gamma =  23.3000

  Initial cell volume =         170.158355 Angs**3

  Temperature of configuration =  0.000     K 

  Pressure of configuration =         0.000 GPa 

  Fractional coordinates of asymmetric unit :

--------------------------------------------------------------------------------
   No.  Atomic       x           y          z         Charge      Occupancy
        Label      (Frac)      (Frac)     (Frac)        (e)         (Frac)  
--------------------------------------------------------------------------------
      1 Sb    c    0.396797    0.396797    0.396797      0.1090    1.000000    
      2 Sb    c    0.603203    0.603203    0.603203      0.1090    1.000000    
      3 Te1   c    0.000000    0.000000    0.020000      0.1600    1.000000    
      4 Te2   c    0.784571    0.784571    0.784571     -0.1890    1.000000    
      5 Te2   c    0.215429    0.215429    0.215429     -0.1890    1.000000    
--------------------------------------------------------------------------------



********************************************************************************
*  Input for Configuration =  30                                               *
********************************************************************************

  Formula = Sb2Te3                                                      

  Number of irreducible atoms/shells =       5


  Total number atoms/shells =       5

  Dimensionality = 3               :  Bulk   



  Cartesian lattice vectors (Angstroms) :

       10.739800    0.000000    0.000000
        9.863930    4.248080    0.000000
        9.863930    2.033746    3.729619

  Cell parameters (Angstroms/Degrees):

  a =      10.7398    alpha =  23.3000
  b =      10.7398    beta  =  23.3000
  c =      10.7398    gamma =  23.3000

  Initial cell volume =         170.158355 Angs**3

  Temperature of configuration =  0.000     K 

  Pressure of configuration =         0.000 GPa 

  Fractional coordinates of asymmetric unit :

--------------------------------------------------------------------------------
   No.  Atomic       x           y          z         Charge      Occupancy
        Label      (Frac)      (Frac)     (Frac)        (e)         (Frac)  
--------------------------------------------------------------------------------
      1 Sb    c    0.396797    0.396797    0.396797      0.1090    1.000000    
      2 Sb    c    0.603203    0.603203    0.603203      0.1090    1.000000    
      3 Te1   c    0.000000    0.000000    0.025000      0.1600    1.000000    
      4 Te2   c    0.784571    0.784571    0.784571     -0.1890    1.000000    
      5 Te2   c    0.215429    0.215429    0.215429     -0.1890    1.000000    
--------------------------------------------------------------------------------



********************************************************************************
*  Input for Configuration =  31                                               *
********************************************************************************

  Formula = Sb2Te3                                                      

  Number of irreducible atoms/shells =       5


  Total number atoms/shells =       5

  Dimensionality = 3               :  Bulk   



  Cartesian lattice vectors (Angstroms) :

       10.739800    0.000000    0.000000
        9.863930    4.248080    0.000000
        9.863930    2.033746    3.729619

  Cell parameters (Angstroms/Degrees):

  a =      10.7398    alpha =  23.3000
  b =      10.7398    beta  =  23.3000
  c =      10.7398    gamma =  23.3000

  Initial cell volume =         170.158355 Angs**3

  Temperature of configuration =  0.000     K 

  Pressure of configuration =         0.000 GPa 

  Fractional coordinates of asymmetric unit :

--------------------------------------------------------------------------------
   No.  Atomic       x           y          z         Charge      Occupancy
        Label      (Frac)      (Frac)     (Frac)        (e)         (Frac)  
--------------------------------------------------------------------------------
      1 Sb    c    0.396797    0.396797    0.396797      0.1090    1.000000    
      2 Sb    c    0.603203    0.603203    0.603203      0.1090    1.000000    
      3 Te1   c    0.000000    0.000000    0.000000      0.1600    1.000000    
      4 Te2   c    0.789571    0.784571    0.784571     -0.1890    1.000000    
      5 Te2   c    0.215429    0.215429    0.215429     -0.1890    1.000000    
--------------------------------------------------------------------------------



********************************************************************************
*  Input for Configuration =  32                                               *
********************************************************************************

  Formula = Sb2Te3                                                      

  Number of irreducible atoms/shells =       5


  Total number atoms/shells =       5

  Dimensionality = 3               :  Bulk   



  Cartesian lattice vectors (Angstroms) :

       10.739800    0.000000    0.000000
        9.863930    4.248080    0.000000
        9.863930    2.033746    3.729619

  Cell parameters (Angstroms/Degrees):

  a =      10.7398    alpha =  23.3000
  b =      10.7398    beta  =  23.3000
  c =      10.7398    gamma =  23.3000

  Initial cell volume =         170.158355 Angs**3

  Temperature of configuration =  0.000     K 

  Pressure of configuration =         0.000 GPa 

  Fractional coordinates of asymmetric unit :

--------------------------------------------------------------------------------
   No.  Atomic       x           y          z         Charge      Occupancy
        Label      (Frac)      (Frac)     (Frac)        (e)         (Frac)  
--------------------------------------------------------------------------------
      1 Sb    c    0.396797    0.396797    0.396797      0.1090    1.000000    
      2 Sb    c    0.603203    0.603203    0.603203      0.1090    1.000000    
      3 Te1   c    0.000000    0.000000    0.000000      0.1600    1.000000    
      4 Te2   c    0.794571    0.784571    0.784571     -0.1890    1.000000    
      5 Te2   c    0.215429    0.215429    0.215429     -0.1890    1.000000    
--------------------------------------------------------------------------------



********************************************************************************
*  Input for Configuration =  33                                               *
********************************************************************************

  Formula = Sb2Te3                                                      

  Number of irreducible atoms/shells =       5


  Total number atoms/shells =       5

  Dimensionality = 3               :  Bulk   



  Cartesian lattice vectors (Angstroms) :

       10.739800    0.000000    0.000000
        9.863930    4.248080    0.000000
        9.863930    2.033746    3.729619

  Cell parameters (Angstroms/Degrees):

  a =      10.7398    alpha =  23.3000
  b =      10.7398    beta  =  23.3000
  c =      10.7398    gamma =  23.3000

  Initial cell volume =         170.158355 Angs**3

  Temperature of configuration =  0.000     K 

  Pressure of configuration =         0.000 GPa 

  Fractional coordinates of asymmetric unit :

--------------------------------------------------------------------------------
   No.  Atomic       x           y          z         Charge      Occupancy
        Label      (Frac)      (Frac)     (Frac)        (e)         (Frac)  
--------------------------------------------------------------------------------
      1 Sb    c    0.396797    0.396797    0.396797      0.1090    1.000000    
      2 Sb    c    0.603203    0.603203    0.603203      0.1090    1.000000    
      3 Te1   c    0.000000    0.000000    0.000000      0.1600    1.000000    
      4 Te2   c    0.799571    0.784571    0.784571     -0.1890    1.000000    
      5 Te2   c    0.215429    0.215429    0.215429     -0.1890    1.000000    
--------------------------------------------------------------------------------



********************************************************************************
*  Input for Configuration =  34                                               *
********************************************************************************

  Formula = Sb2Te3                                                      

  Number of irreducible atoms/shells =       5


  Total number atoms/shells =       5

  Dimensionality = 3               :  Bulk   



  Cartesian lattice vectors (Angstroms) :

       10.739800    0.000000    0.000000
        9.863930    4.248080    0.000000
        9.863930    2.033746    3.729619

  Cell parameters (Angstroms/Degrees):

  a =      10.7398    alpha =  23.3000
  b =      10.7398    beta  =  23.3000
  c =      10.7398    gamma =  23.3000

  Initial cell volume =         170.158355 Angs**3

  Temperature of configuration =  0.000     K 

  Pressure of configuration =         0.000 GPa 

  Fractional coordinates of asymmetric unit :

--------------------------------------------------------------------------------
   No.  Atomic       x           y          z         Charge      Occupancy
        Label      (Frac)      (Frac)     (Frac)        (e)         (Frac)  
--------------------------------------------------------------------------------
      1 Sb    c    0.396797    0.396797    0.396797      0.1090    1.000000    
      2 Sb    c    0.603203    0.603203    0.603203      0.1090    1.000000    
      3 Te1   c    0.000000    0.000000    0.000000      0.1600    1.000000    
      4 Te2   c    0.804571    0.784571    0.784571     -0.1890    1.000000    
      5 Te2   c    0.215429    0.215429    0.215429     -0.1890    1.000000    
--------------------------------------------------------------------------------



********************************************************************************
*  Input for Configuration =  35                                               *
********************************************************************************

  Formula = Sb2Te3                                                      

  Number of irreducible atoms/shells =       5


  Total number atoms/shells =       5

  Dimensionality = 3               :  Bulk   



  Cartesian lattice vectors (Angstroms) :

       10.739800    0.000000    0.000000
        9.863930    4.248080    0.000000
        9.863930    2.033746    3.729619

  Cell parameters (Angstroms/Degrees):

  a =      10.7398    alpha =  23.3000
  b =      10.7398    beta  =  23.3000
  c =      10.7398    gamma =  23.3000

  Initial cell volume =         170.158355 Angs**3

  Temperature of configuration =  0.000     K 

  Pressure of configuration =         0.000 GPa 

  Fractional coordinates of asymmetric unit :

--------------------------------------------------------------------------------
   No.  Atomic       x           y          z         Charge      Occupancy
        Label      (Frac)      (Frac)     (Frac)        (e)         (Frac)  
--------------------------------------------------------------------------------
      1 Sb    c    0.396797    0.396797    0.396797      0.1090    1.000000    
      2 Sb    c    0.603203    0.603203    0.603203      0.1090    1.000000    
      3 Te1   c    0.000000    0.000000    0.000000      0.1600    1.000000    
      4 Te2   c    0.809571    0.784571    0.784571     -0.1890    1.000000    
      5 Te2   c    0.215429    0.215429    0.215429     -0.1890    1.000000    
--------------------------------------------------------------------------------



********************************************************************************
*  Input for Configuration =  36                                               *
********************************************************************************

  Formula = Sb2Te3                                                      

  Number of irreducible atoms/shells =       5


  Total number atoms/shells =       5

  Dimensionality = 3               :  Bulk   



  Cartesian lattice vectors (Angstroms) :

       10.739800    0.000000    0.000000
        9.863930    4.248080    0.000000
        9.863930    2.033746    3.729619

  Cell parameters (Angstroms/Degrees):

  a =      10.7398    alpha =  23.3000
  b =      10.7398    beta  =  23.3000
  c =      10.7398    gamma =  23.3000

  Initial cell volume =         170.158355 Angs**3

  Temperature of configuration =  0.000     K 

  Pressure of configuration =         0.000 GPa 

  Fractional coordinates of asymmetric unit :

--------------------------------------------------------------------------------
   No.  Atomic       x           y          z         Charge      Occupancy
        Label      (Frac)      (Frac)     (Frac)        (e)         (Frac)  
--------------------------------------------------------------------------------
      1 Sb    c    0.396797    0.396797    0.396797      0.1090    1.000000    
      2 Sb    c    0.603203    0.603203    0.603203      0.1090    1.000000    
      3 Te1   c    0.000000    0.000000    0.000000      0.1600    1.000000    
      4 Te2   c    0.784571    0.789571    0.784571     -0.1890    1.000000    
      5 Te2   c    0.215429    0.215429    0.215429     -0.1890    1.000000    
--------------------------------------------------------------------------------



********************************************************************************
*  Input for Configuration =  37                                               *
********************************************************************************

  Formula = Sb2Te3                                                      

  Number of irreducible atoms/shells =       5


  Total number atoms/shells =       5

  Dimensionality = 3               :  Bulk   



  Cartesian lattice vectors (Angstroms) :

       10.739800    0.000000    0.000000
        9.863930    4.248080    0.000000
        9.863930    2.033746    3.729619

  Cell parameters (Angstroms/Degrees):

  a =      10.7398    alpha =  23.3000
  b =      10.7398    beta  =  23.3000
  c =      10.7398    gamma =  23.3000

  Initial cell volume =         170.158355 Angs**3

  Temperature of configuration =  0.000     K 

  Pressure of configuration =         0.000 GPa 

  Fractional coordinates of asymmetric unit :

--------------------------------------------------------------------------------
   No.  Atomic       x           y          z         Charge      Occupancy
        Label      (Frac)      (Frac)     (Frac)        (e)         (Frac)  
--------------------------------------------------------------------------------
      1 Sb    c    0.396797    0.396797    0.396797      0.1090    1.000000    
      2 Sb    c    0.603203    0.603203    0.603203      0.1090    1.000000    
      3 Te1   c    0.000000    0.000000    0.000000      0.1600    1.000000    
      4 Te2   c    0.784571    0.794571    0.784571     -0.1890    1.000000    
      5 Te2   c    0.215429    0.215429    0.215429     -0.1890    1.000000    
--------------------------------------------------------------------------------



********************************************************************************
*  Input for Configuration =  38                                               *
********************************************************************************

  Formula = Sb2Te3                                                      

  Number of irreducible atoms/shells =       5


  Total number atoms/shells =       5

  Dimensionality = 3               :  Bulk   



  Cartesian lattice vectors (Angstroms) :

       10.739800    0.000000    0.000000
        9.863930    4.248080    0.000000
        9.863930    2.033746    3.729619

  Cell parameters (Angstroms/Degrees):

  a =      10.7398    alpha =  23.3000
  b =      10.7398    beta  =  23.3000
  c =      10.7398    gamma =  23.3000

  Initial cell volume =         170.158355 Angs**3

  Temperature of configuration =  0.000     K 

  Pressure of configuration =         0.000 GPa 

  Fractional coordinates of asymmetric unit :

--------------------------------------------------------------------------------
   No.  Atomic       x           y          z         Charge      Occupancy
        Label      (Frac)      (Frac)     (Frac)        (e)         (Frac)  
--------------------------------------------------------------------------------
      1 Sb    c    0.396797    0.396797    0.396797      0.1090    1.000000    
      2 Sb    c    0.603203    0.603203    0.603203      0.1090    1.000000    
      3 Te1   c    0.000000    0.000000    0.000000      0.1600    1.000000    
      4 Te2   c    0.784571    0.799571    0.784571     -0.1890    1.000000    
      5 Te2   c    0.215429    0.215429    0.215429     -0.1890    1.000000    
--------------------------------------------------------------------------------



********************************************************************************
*  Input for Configuration =  39                                               *
********************************************************************************

  Formula = Sb2Te3                                                      

  Number of irreducible atoms/shells =       5


  Total number atoms/shells =       5

  Dimensionality = 3               :  Bulk   



  Cartesian lattice vectors (Angstroms) :

       10.739800    0.000000    0.000000
        9.863930    4.248080    0.000000
        9.863930    2.033746    3.729619

  Cell parameters (Angstroms/Degrees):

  a =      10.7398    alpha =  23.3000
  b =      10.7398    beta  =  23.3000
  c =      10.7398    gamma =  23.3000

  Initial cell volume =         170.158355 Angs**3

  Temperature of configuration =  0.000     K 

  Pressure of configuration =         0.000 GPa 

  Fractional coordinates of asymmetric unit :

--------------------------------------------------------------------------------
   No.  Atomic       x           y          z         Charge      Occupancy
        Label      (Frac)      (Frac)     (Frac)        (e)         (Frac)  
--------------------------------------------------------------------------------
      1 Sb    c    0.396797    0.396797    0.396797      0.1090    1.000000    
      2 Sb    c    0.603203    0.603203    0.603203      0.1090    1.000000    
      3 Te1   c    0.000000    0.000000    0.000000      0.1600    1.000000    
      4 Te2   c    0.784571    0.804571    0.784571     -0.1890    1.000000    
      5 Te2   c    0.215429    0.215429    0.215429     -0.1890    1.000000    
--------------------------------------------------------------------------------



********************************************************************************
*  Input for Configuration =  40                                               *
********************************************************************************

  Formula = Sb2Te3                                                      

  Number of irreducible atoms/shells =       5


  Total number atoms/shells =       5

  Dimensionality = 3               :  Bulk   



  Cartesian lattice vectors (Angstroms) :

       10.739800    0.000000    0.000000
        9.863930    4.248080    0.000000
        9.863930    2.033746    3.729619

  Cell parameters (Angstroms/Degrees):

  a =      10.7398    alpha =  23.3000
  b =      10.7398    beta  =  23.3000
  c =      10.7398    gamma =  23.3000

  Initial cell volume =         170.158355 Angs**3

  Temperature of configuration =  0.000     K 

  Pressure of configuration =         0.000 GPa 

  Fractional coordinates of asymmetric unit :

--------------------------------------------------------------------------------
   No.  Atomic       x           y          z         Charge      Occupancy
        Label      (Frac)      (Frac)     (Frac)        (e)         (Frac)  
--------------------------------------------------------------------------------
      1 Sb    c    0.396797    0.396797    0.396797      0.1090    1.000000    
      2 Sb    c    0.603203    0.603203    0.603203      0.1090    1.000000    
      3 Te1   c    0.000000    0.000000    0.000000      0.1600    1.000000    
      4 Te2   c    0.784571    0.809571    0.784571     -0.1890    1.000000    
      5 Te2   c    0.215429    0.215429    0.215429     -0.1890    1.000000    
--------------------------------------------------------------------------------



********************************************************************************
*  Input for Configuration =  41                                               *
********************************************************************************

  Formula = Sb2Te3                                                      

  Number of irreducible atoms/shells =       5


  Total number atoms/shells =       5

  Dimensionality = 3               :  Bulk   



  Cartesian lattice vectors (Angstroms) :

       10.739800    0.000000    0.000000
        9.863930    4.248080    0.000000
        9.863930    2.033746    3.729619

  Cell parameters (Angstroms/Degrees):

  a =      10.7398    alpha =  23.3000
  b =      10.7398    beta  =  23.3000
  c =      10.7398    gamma =  23.3000

  Initial cell volume =         170.158355 Angs**3

  Temperature of configuration =  0.000     K 

  Pressure of configuration =         0.000 GPa 

  Fractional coordinates of asymmetric unit :

--------------------------------------------------------------------------------
   No.  Atomic       x           y          z         Charge      Occupancy
        Label      (Frac)      (Frac)     (Frac)        (e)         (Frac)  
--------------------------------------------------------------------------------
      1 Sb    c    0.396797    0.396797    0.396797      0.1090    1.000000    
      2 Sb    c    0.603203    0.603203    0.603203      0.1090    1.000000    
      3 Te1   c    0.000000    0.000000    0.000000      0.1600    1.000000    
      4 Te2   c    0.784571    0.784571    0.789571     -0.1890    1.000000    
      5 Te2   c    0.215429    0.215429    0.215429     -0.1890    1.000000    
--------------------------------------------------------------------------------



********************************************************************************
*  Input for Configuration =  42                                               *
********************************************************************************

  Formula = Sb2Te3                                                      

  Number of irreducible atoms/shells =       5


  Total number atoms/shells =       5

  Dimensionality = 3               :  Bulk   



  Cartesian lattice vectors (Angstroms) :

       10.739800    0.000000    0.000000
        9.863930    4.248080    0.000000
        9.863930    2.033746    3.729619

  Cell parameters (Angstroms/Degrees):

  a =      10.7398    alpha =  23.3000
  b =      10.7398    beta  =  23.3000
  c =      10.7398    gamma =  23.3000

  Initial cell volume =         170.158355 Angs**3

  Temperature of configuration =  0.000     K 

  Pressure of configuration =         0.000 GPa 

  Fractional coordinates of asymmetric unit :

--------------------------------------------------------------------------------
   No.  Atomic       x           y          z         Charge      Occupancy
        Label      (Frac)      (Frac)     (Frac)        (e)         (Frac)  
--------------------------------------------------------------------------------
      1 Sb    c    0.396797    0.396797    0.396797      0.1090    1.000000    
      2 Sb    c    0.603203    0.603203    0.603203      0.1090    1.000000    
      3 Te1   c    0.000000    0.000000    0.000000      0.1600    1.000000    
      4 Te2   c    0.784571    0.784571    0.794571     -0.1890    1.000000    
      5 Te2   c    0.215429    0.215429    0.215429     -0.1890    1.000000    
--------------------------------------------------------------------------------



********************************************************************************
*  Input for Configuration =  43                                               *
********************************************************************************

  Formula = Sb2Te3                                                      

  Number of irreducible atoms/shells =       5


  Total number atoms/shells =       5

  Dimensionality = 3               :  Bulk   



  Cartesian lattice vectors (Angstroms) :

       10.739800    0.000000    0.000000
        9.863930    4.248080    0.000000
        9.863930    2.033746    3.729619

  Cell parameters (Angstroms/Degrees):

  a =      10.7398    alpha =  23.3000
  b =      10.7398    beta  =  23.3000
  c =      10.7398    gamma =  23.3000

  Initial cell volume =         170.158355 Angs**3

  Temperature of configuration =  0.000     K 

  Pressure of configuration =         0.000 GPa 

  Fractional coordinates of asymmetric unit :

--------------------------------------------------------------------------------
   No.  Atomic       x           y          z         Charge      Occupancy
        Label      (Frac)      (Frac)     (Frac)        (e)         (Frac)  
--------------------------------------------------------------------------------
      1 Sb    c    0.396797    0.396797    0.396797      0.1090    1.000000    
      2 Sb    c    0.603203    0.603203    0.603203      0.1090    1.000000    
      3 Te1   c    0.000000    0.000000    0.000000      0.1600    1.000000    
      4 Te2   c    0.784571    0.784571    0.799571     -0.1890    1.000000    
      5 Te2   c    0.215429    0.215429    0.215429     -0.1890    1.000000    
--------------------------------------------------------------------------------



********************************************************************************
*  Input for Configuration =  44                                               *
********************************************************************************

  Formula = Sb2Te3                                                      

  Number of irreducible atoms/shells =       5


  Total number atoms/shells =       5

  Dimensionality = 3               :  Bulk   



  Cartesian lattice vectors (Angstroms) :

       10.739800    0.000000    0.000000
        9.863930    4.248080    0.000000
        9.863930    2.033746    3.729619

  Cell parameters (Angstroms/Degrees):

  a =      10.7398    alpha =  23.3000
  b =      10.7398    beta  =  23.3000
  c =      10.7398    gamma =  23.3000

  Initial cell volume =         170.158355 Angs**3

  Temperature of configuration =  0.000     K 

  Pressure of configuration =         0.000 GPa 

  Fractional coordinates of asymmetric unit :

--------------------------------------------------------------------------------
   No.  Atomic       x           y          z         Charge      Occupancy
        Label      (Frac)      (Frac)     (Frac)        (e)         (Frac)  
--------------------------------------------------------------------------------
      1 Sb    c    0.396797    0.396797    0.396797      0.1090    1.000000    
      2 Sb    c    0.603203    0.603203    0.603203      0.1090    1.000000    
      3 Te1   c    0.000000    0.000000    0.000000      0.1600    1.000000    
      4 Te2   c    0.784571    0.784571    0.804571     -0.1890    1.000000    
      5 Te2   c    0.215429    0.215429    0.215429     -0.1890    1.000000    
--------------------------------------------------------------------------------



********************************************************************************
*  Input for Configuration =  45                                               *
********************************************************************************

  Formula = Sb2Te3                                                      

  Number of irreducible atoms/shells =       5


  Total number atoms/shells =       5

  Dimensionality = 3               :  Bulk   



  Cartesian lattice vectors (Angstroms) :

       10.739800    0.000000    0.000000
        9.863930    4.248080    0.000000
        9.863930    2.033746    3.729619

[...]
********************************************************************************



!!!!!!!!!!!!!!!!!!!!!!!!!!!!!!!!!!!!!!!!!!!!!!!!!!!!!!!!!!!!!!!!!!!!!!!!!!!!!!!!
!! WARNING : No variables to optimise - single point performed
!!!!!!!!!!!!!!!!!!!!!!!!!!!!!!!!!!!!!!!!!!!!!!!!!!!!!!!!!!!!!!!!!!!!!!!!!!!!!!!!


  Components of energy : 

--------------------------------------------------------------------------------
  Interatomic potentials     =          -3.63240954 eV
  Monopole - monopole (real) =           0.01791292 eV
  Monopole - monopole (recip)=          -0.02133022 eV
  Monopole - monopole (total)=          -0.00341730 eV
  Energy shift               =         -14.67383128 eV
--------------------------------------------------------------------------------
  Total lattice energy       =         -18.30965812 eV
--------------------------------------------------------------------------------
  Total lattice energy       =           -1766.6021 kJ/(mole unit cells)
--------------------------------------------------------------------------------

  Born effective charge tensors : 

-------------------------------------------------------------------------------
  Atom             x           y             z
-------------------------------------------------------------------------------
   1 Sb    x       0.1069      0.0000      0.0000
           y       0.0000      0.1069      0.0000
           z       0.0000      0.0000      0.1069
-------------------------------------------------------------------------------
   2 Sb    x       0.1069      0.0000      0.0000
           y       0.0000      0.1069      0.0000
           z       0.0000      0.0000      0.1069
-------------------------------------------------------------------------------
   3 Te1   x       0.1894      0.0000      0.0000
           y       0.0000      0.1894      0.0000
           z       0.0000      0.0000      0.1894
-------------------------------------------------------------------------------
   4 Te2   x      -0.2015      0.0000      0.0000
           y       0.0000     -0.2015      0.0000
           z       0.0000      0.0000     -0.2015
-------------------------------------------------------------------------------
   5 Te2   x      -0.2015      0.0000      0.0000
           y       0.0000     -0.2015      0.0000
           z       0.0000      0.0000     -0.2015
-------------------------------------------------------------------------------




  Elastic Constant Matrix: (Units=GPa)

-------------------------------------------------------------------------------
  Indices      1         2         3         4         5         6    
-------------------------------------------------------------------------------
       1     45.9860   23.8510   32.0764   -7.5421   -2.4853   -4.1860
       2     23.8510   43.3134   20.8322   10.1031   14.9065    4.7615
       3     32.0764   20.8322   34.6880   -2.1942  -10.6420    2.4213
       4     -7.5421   10.1031   -2.1942   17.0072    2.1773   14.7616
       5     -2.4853   14.9065  -10.6420    2.1773   27.1185   -7.5720
       6     -4.1860    4.7615    2.4213   14.7616   -7.5720   18.8606
-------------------------------------------------------------------------------


  Elastic Compliance Matrix: (Units=1/GPa)

-------------------------------------------------------------------------------
  Indices      1         2         3         4         5         6    
-------------------------------------------------------------------------------
       1    0.090689 -0.024296 -0.068316  0.080726 -0.021944 -0.036960
       2   -0.024296  0.181353 -0.138942 -0.115710 -0.147729 -0.002086
       3   -0.068316 -0.138942  0.225949  0.033927  0.164549  0.030416
       4    0.080726 -0.115710  0.033927  0.492370 -0.057297 -0.365594
       5   -0.021944 -0.147729  0.164549 -0.057297  0.226284  0.146992
       6   -0.036960 -0.002086  0.030416 -0.365594  0.146992  0.386593
-------------------------------------------------------------------------------

 Mechanical properties :

-------------------------------------------------------------------------------
  Convention :                    Reuss         Voigt         Hill
-------------------------------------------------------------------------------
  Bulk  Modulus (GPa)     =      28.66707      30.83408      29.75058
  Shear Modulus (GPa)     =       2.40619      15.74578       9.07599
-------------------------------------------------------------------------------
  Velocity S-wave (km/s)  =       1.98414       5.07563       3.85349
  Velocity P-wave (km/s)  =       7.22162       9.20856       8.27494
-------------------------------------------------------------------------------
  Compressibility (1/GPa) =    0.03488324
-------------------------------------------------------------------------------
  Stress axis :                     x             y             z
-------------------------------------------------------------------------------
  Youngs Moduli (GPa)     =      11.02672       5.51410       4.42577
-------------------------------------------------------------------------------
  Poissons Ratio (x)      =                     0.13397       0.30235
  Poissons Ratio (y)      =       0.26791                     0.61493
  Poissons Ratio (z)      =       0.75330       0.76614
-------------------------------------------------------------------------------


  Piezoelectric Strain Matrix: (Units=C/m**2)

-------------------------------------------------------------------------------
  Indices      1         2         3         4         5         6    
-------------------------------------------------------------------------------
       x     0.00000   0.00000   0.00000  -0.00000  -0.00000  -0.00000
       y    -0.00000   0.00000   0.00000   0.00000  -0.00000   0.00000
       z    -0.00000   0.00000  -0.00000   0.00000   0.00000  -0.00000
-------------------------------------------------------------------------------


  Piezoelectric Stress Matrix: (Units=10**-11 C/N)

-------------------------------------------------------------------------------
  Indices      1         2         3         4         5         6    
-------------------------------------------------------------------------------
       x    -0.00000   0.00000   0.00000  -0.00000  -0.00000  -0.00000
       y    -0.00000   0.00000   0.00000   0.00000  -0.00000  -0.00000
       z    -0.00000   0.00000  -0.00000   0.00000   0.00000  -0.00000
-------------------------------------------------------------------------------


  Static dielectric constant tensor : 

-------------------------------------------------------------------------------
              x         y         z
-------------------------------------------------------------------------------
       x     1.03403  -0.00097  -0.00057
       y    -0.00097   1.03852  -0.00012
       z    -0.00057  -0.00012   1.03865
--------------------------------------------------------------------------------

  Static refractive indices : 

-------------------------------------------------------------------------------
    1 =    1.01674      2 =    1.01918      3 =    1.01918
-------------------------------------------------------------------------------


  Time to end of properties =     461.4728 seconds


********************************************************************************
*  Output for configuration  58                                                *
********************************************************************************


  Components of energy : 

--------------------------------------------------------------------------------
  Interatomic potentials     =          -3.63240954 eV
  Monopole - monopole (real) =           0.01791292 eV
  Monopole - monopole (recip)=          -0.02133022 eV
  Monopole - monopole (total)=          -0.00341730 eV
  Energy shift               =         -14.67383128 eV
--------------------------------------------------------------------------------
  Total lattice energy       =         -18.30965812 eV
--------------------------------------------------------------------------------
  Total lattice energy       =           -1766.6021 kJ/(mole unit cells)
--------------------------------------------------------------------------------


  Number of variables =      6

  Maximum number of calculations  =          1000
  Maximum Hessian update interval =            10
  Maximum step size               =   1.000000000
  Maximum parameter tolerance     =   0.000010000
  Maximum function  tolerance     =   0.000010000
  Maximum gradient  tolerance     =   0.001000000
  Maximum gradient  component     =   0.010000000

  Symmetry not applied to optimisation

  Cell parameters to be optimised using strains

  Newton-Raphson optimiser to be used

  BFGS hessian update to be used

  Dumpfile to be written after every cycle

  Start of bulk optimisation :

  Cycle:      0 Energy:       -18.309658  Gnorm:      0.017810  CPU:  461.489
  ** Hessian calculated **
  Cycle:      1 Energy:       -18.309731  Gnorm:      0.000119  CPU:  461.493


  **** Optimisation achieved ****


  Final energy =     -18.30973058 eV
  Final Gnorm  =       0.00000089

  Components of energy : 

--------------------------------------------------------------------------------
  Interatomic potentials     =          -3.63518058 eV
  Monopole - monopole (real) =           0.01814282 eV
  Monopole - monopole (recip)=          -0.01886154 eV
  Monopole - monopole (total)=          -0.00071872 eV
  Energy shift               =         -14.67383128 eV
--------------------------------------------------------------------------------
  Total lattice energy       =         -18.30973058 eV
--------------------------------------------------------------------------------
  Total lattice energy       =           -1766.6091 kJ/(mole unit cells)
--------------------------------------------------------------------------------

  Final fractional coordinates of atoms :

--------------------------------------------------------------------------------
   No.  Atomic        x           y          z          Radius
        Label       (Frac)      (Frac)     (Frac)       (Angs) 
--------------------------------------------------------------------------------
     1  Sb    c     0.396797    0.396797    0.396797    0.000000
     2  Sb    c     0.603203    0.603203    0.603203    0.000000
     3  Te1   c     0.000000    0.000000    0.000000    0.000000
     4  Te2   c     0.784571    0.784571    0.784571    0.000000
     5  Te2   c     0.215429    0.215429    0.215429    0.000000
--------------------------------------------------------------------------------

  Final Cartesian lattice vectors (Angstroms) :

       10.753007    0.005915    0.003512
        9.878400    4.247871    0.003512
        9.878400    2.036730    3.727754


  Final cell parameters and derivatives :

--------------------------------------------------------------------------------
       a           10.753009 Angstrom     dE/de1(xx)     0.000003 eV/strain
       b           10.753009 Angstrom     dE/de2(yy)     0.000003 eV/strain
       c           10.753009 Angstrom     dE/de3(zz)     0.000003 eV/strain
       alpha       23.236966 Degrees      dE/de4(yz)    -0.000000 eV/strain
       beta        23.236966 Degrees      dE/de5(xz)    -0.000000 eV/strain
       gamma       23.236966 Degrees      dE/de6(xy)    -0.000000 eV/strain
--------------------------------------------------------------------------------

  Primitive cell volume =           169.902861 Angs**3

  Density of cell =      6.121216 g/cm**3

  Non-primitive cell volume =           169.902861 Angs**3


  Final internal derivatives :

--------------------------------------------------------------------------------
   No.  Atomic          x             y             z           Radius
        Label          (eV)          (eV)          (eV)        (eV/Angs)
--------------------------------------------------------------------------------
      1 Sb    c       0.000000      0.000000      0.000000      0.000000
      2 Sb    c       0.000000      0.000000      0.000000      0.000000
      3 Te1   c       0.000000      0.000000      0.000000      0.000000
      4 Te2   c       0.000000      0.000000      0.000000      0.000000
      5 Te2   c       0.000000      0.000000      0.000000      0.000000
--------------------------------------------------------------------------------
  Maximum abs         0.000000      0.000000      0.000000      0.000000
--------------------------------------------------------------------------------


  Born effective charge tensors : 

-------------------------------------------------------------------------------
  Atom             x           y             z
-------------------------------------------------------------------------------
   1 Sb    x       0.1069      0.0000      0.0000
           y       0.0000      0.1069      0.0000
           z       0.0000      0.0000      0.1069
-------------------------------------------------------------------------------
   2 Sb    x       0.1069      0.0000      0.0000
           y       0.0000      0.1069      0.0000
           z       0.0000      0.0000      0.1069
-------------------------------------------------------------------------------
   3 Te1   x       0.1894      0.0000      0.0000
           y       0.0000      0.1894      0.0000
           z       0.0000      0.0000      0.1894
-------------------------------------------------------------------------------
   4 Te2   x      -0.2015      0.0000      0.0000
           y       0.0000     -0.2015      0.0000
           z       0.0000      0.0000     -0.2015
-------------------------------------------------------------------------------
   5 Te2   x      -0.2015      0.0000      0.0000
           y       0.0000     -0.2015      0.0000
           z       0.0000      0.0000     -0.2015
-------------------------------------------------------------------------------




  Elastic Constant Matrix: (Units=GPa)

-------------------------------------------------------------------------------
  Indices      1         2         3         4         5         6    
-------------------------------------------------------------------------------
       1     46.3876   24.0689   32.3043   -7.5513   -2.4737   -4.1664
       2     24.0689   43.5605   21.0139   10.1206   14.9350    4.7752
       3     32.3043   21.0139   34.9193   -2.1971  -10.6564    2.4312
       4     -7.5513   10.1206   -2.1971   17.0491    2.1809   14.7864
       5     -2.4737   14.9350  -10.6564    2.1809   27.1771   -7.5819
       6     -4.1664    4.7752    2.4312   14.7864   -7.5819   18.9083
-------------------------------------------------------------------------------


  Elastic Compliance Matrix: (Units=1/GPa)

-------------------------------------------------------------------------------
  Indices      1         2         3         4         5         6    
-------------------------------------------------------------------------------
       1    0.089453 -0.023972 -0.067394  0.079631 -0.021695 -0.036541
       2   -0.023972  0.179049 -0.137089 -0.114153 -0.145741 -0.002045
       3   -0.067394 -0.137089  0.223043  0.033473  0.162347  0.030015
       4    0.079631 -0.114153  0.033473  0.486043 -0.056522 -0.360681
       5   -0.021695 -0.145741  0.162347 -0.056522  0.223557  0.144995
       6   -0.036541 -0.002045  0.030015 -0.360681  0.144995  0.381688
-------------------------------------------------------------------------------

 Mechanical properties :

-------------------------------------------------------------------------------
  Convention :                    Reuss         Voigt         Hill
-------------------------------------------------------------------------------
  Bulk  Modulus (GPa)     =      28.87240      31.07129      29.97184
  Shear Modulus (GPa)     =       2.43749      15.79225       9.11487
-------------------------------------------------------------------------------
  Velocity S-wave (km/s)  =       1.99551       5.07929       3.85884
  Velocity P-wave (km/s)  =       7.24411       9.22816       8.29566
-------------------------------------------------------------------------------
  Compressibility (1/GPa) =    0.03463515
-------------------------------------------------------------------------------
  Stress axis :                     x             y             z
-------------------------------------------------------------------------------
  Youngs Moduli (GPa)     =      11.17905       5.58508       4.48343
-------------------------------------------------------------------------------
  Poissons Ratio (x)      =                     0.13388       0.30216
  Poissons Ratio (y)      =       0.26798                     0.61463
  Poissons Ratio (z)      =       0.75341       0.76565
-------------------------------------------------------------------------------


  Piezoelectric Strain Matrix: (Units=C/m**2)

-------------------------------------------------------------------------------
  Indices      1         2         3         4         5         6    
-------------------------------------------------------------------------------
       x     0.00000   0.00000   0.00000  -0.00000  -0.00000  -0.00000
       y    -0.00000   0.00000   0.00000   0.00000  -0.00000   0.00000
       z    -0.00000   0.00000  -0.00000   0.00000   0.00000  -0.00000
-------------------------------------------------------------------------------


  Piezoelectric Stress Matrix: (Units=10**-11 C/N)

-------------------------------------------------------------------------------
  Indices      1         2         3         4         5         6    
-------------------------------------------------------------------------------
       x    -0.00000   0.00000   0.00000  -0.00000  -0.00000  -0.00000
       y    -0.00000   0.00000   0.00000   0.00000  -0.00000  -0.00000
       z    -0.00000   0.00000  -0.00000   0.00000   0.00000  -0.00000
-------------------------------------------------------------------------------


  Static dielectric constant tensor : 

-------------------------------------------------------------------------------
              x         y         z
-------------------------------------------------------------------------------
       x     1.03363  -0.00100  -0.00060
       y    -0.00100   1.03829  -0.00012
       z    -0.00060  -0.00012   1.03842
--------------------------------------------------------------------------------

  Static refractive indices : 

-------------------------------------------------------------------------------
    1 =    1.01654      2 =    1.01907      3 =    1.01907
-------------------------------------------------------------------------------


  Time to end of optimisation =     461.5128 seconds


  Peak dynamic memory used =       0.92 MB 


  Timing analysis for GULP :

--------------------------------------------------------------------------------
  Task / Subroutine                                          Time (Seconds)
--------------------------------------------------------------------------------
  Calculation of reciprocal space energy and derivatives         28.0778
  Calculation of real space energy and derivatives              420.5423
  Sum of squares for fitting                                     10.2006
  Global summation overhead                                       0.4200
--------------------------------------------------------------------------------
  Total CPU time                                                461.5128
--------------------------------------------------------------------------------


  Dump file written as sb2te3.res                                              



  **** GULP has completed with  57 warnings - beware! ****

  Job Finished at 18:07.27 21st June       2010                               

