********************************************************************************
*                       GENERAL UTILITY LATTICE PROGRAM                        *
*                                 Julian Gale                                  *
*                      Nanochemistry Research Institute                        *
*             Curtin University of Technology, Western Australia               *
********************************************************************************
* Version = 3.4.7 * Last modified =  21st July 2009                            *
********************************************************************************
*  optimise     - perform optimisation run                                     *
*  property     - calculate properties for final geometry                      *
********************************************************************************

  Job Started  at 15:41.23 21st June       2010                               

  Number of CPUs =     1


  Total number of configurations input =   2

********************************************************************************
*  Input for Configuration =   1                                               *
********************************************************************************

  Formula = Te3Bi2                                                      

  Number of irreducible atoms/shells =       5


  Total number atoms/shells =       5

  Dimensionality = 3               :  Bulk   



  Cartesian lattice vectors (Angstroms) :

       10.260000    0.000000    0.000000
        9.336945    4.253123    0.000000
        9.336945    2.026396    3.739355

  Cell parameters (Angstroms/Degrees):

  a =      10.2600    alpha =  24.4900
  b =      10.2600    beta  =  24.4900
  c =      10.2600    gamma =  24.4900

  Initial cell volume =         163.174388 Angs**3

  Temperature of configuration =  0.000     K 

  Pressure of configuration =         0.000 GPa 

  Fractional coordinates of asymmetric unit :

--------------------------------------------------------------------------------
   No.  Atomic       x           y          z         Charge      Occupancy
        Label      (Frac)      (Frac)     (Frac)        (e)         (Frac)  
--------------------------------------------------------------------------------
      1 Te1   c    0.208800    0.208800    0.208800     -0.2600    1.000000    
      2 Te1   c    0.791000    0.791000    0.791000     -0.2600    1.000000    
      3 Te2   c    0.000000    0.000000    0.000000     -0.2400    1.000000    
      4 Bi    c    0.400000    0.400000    0.400000      0.3800    1.000000    
      5 Bi    c    0.599000    0.599000    0.599000      0.3800    1.000000    
--------------------------------------------------------------------------------



********************************************************************************
*  Input for Configuration =   2                                               *
********************************************************************************

  Formula = Te3Bi2                                                      

  Number of irreducible atoms/shells =       5


  Total number atoms/shells =       5

  Dimensionality = 3               :  Bulk   



  Cartesian lattice vectors (Angstroms) :

       10.260000    0.000000    0.000000
        9.336945    4.253123    0.000000
        9.336945    2.026396    3.739355

  Cell parameters (Angstroms/Degrees):

  a =      10.2600    alpha =  24.4900
  b =      10.2600    beta  =  24.4900
  c =      10.2600    gamma =  24.4900

  Initial cell volume =         163.174388 Angs**3

  Temperature of configuration =  0.000     K 

  Pressure of configuration =         0.000 GPa 

  Fractional coordinates of asymmetric unit :

--------------------------------------------------------------------------------
   No.  Atomic       x           y          z         Charge      Occupancy
        Label      (Frac)      (Frac)     (Frac)        (e)         (Frac)  
--------------------------------------------------------------------------------
      1 Te1   c    0.208800    0.208800    0.208800     -0.2600    1.000000    
      2 Te1   c    0.791000 *  0.791000 *  0.791000 *   -0.2600    1.000000    
      3 Te2   c    0.000000 *  0.000000 *  0.000000 *   -0.2400    1.000000    
      4 Bi    c    0.400000 *  0.400000 *  0.400000 *    0.3800    1.000000    
      5 Bi    c    0.599000 *  0.599000 *  0.599000 *    0.3800    1.000000    
--------------------------------------------------------------------------------



********************************************************************************
*  General input information                                                   *
********************************************************************************

  Species output for all configurations : 

--------------------------------------------------------------------------------
  Species    Type    Atomic    Atomic    Charge       Radii (Angs)     Library
                     Number     Mass       (e)     Cova   Ionic  VDW   Symbol
--------------------------------------------------------------------------------
    Bi       Core       83     208.98     0.3800   1.540  0.000  2.300          
    Te1      Core       52     127.60    -0.2600   1.470  0.000  2.200          
    Te2      Core       52     127.60    -0.2400   1.470  0.000  2.200          
--------------------------------------------------------------------------------


  Lattice summation method               =    Ewald
  Accuracy factor for lattice sums       =    8.000


  Time limit = Infinity

  Maximum range for interatomic potentials =    100000.000000 Angstroms

  General interatomic potentials :

--------------------------------------------------------------------------------
Atom  Types   Potential         A         B         C         D     Cutoffs(Ang)
  1     2                                                            Min    Max 
--------------------------------------------------------------------------------
Te1  c Bi   c Morse         0.975      1.28     3.09     0.00       0.000  4.000
Te2  c Bi   c Morse         0.582      1.26     3.25     0.00       0.000  4.000
Te1  c Te1  c Morse         0.760E-01  1.68     3.64     0.00       0.000  5.000
Bi   c Bi   c Morse         0.850E-01  2.21     4.20     0.00       0.000  5.500
Te2  c Te2  c Morse         0.660E-01  2.88     4.31     0.00       0.000  5.000
Te1  c Te2  c Morse         0.807     0.731     4.50     0.00       0.000  5.500
--------------------------------------------------------------------------------

********************************************************************************
*  Output for configuration   1                                                *
********************************************************************************



!!!!!!!!!!!!!!!!!!!!!!!!!!!!!!!!!!!!!!!!!!!!!!!!!!!!!!!!!!!!!!!!!!!!!!!!!!!!!!!!
!! WARNING : No variables to optimise - single point performed
!!!!!!!!!!!!!!!!!!!!!!!!!!!!!!!!!!!!!!!!!!!!!!!!!!!!!!!!!!!!!!!!!!!!!!!!!!!!!!!!


  Components of energy : 

--------------------------------------------------------------------------------
  Interatomic potentials     =         -15.40626623 eV
  Monopole - monopole (real) =          -0.37015836 eV
  Monopole - monopole (recip)=          -1.24620113 eV
  Monopole - monopole (total)=          -1.61635949 eV
--------------------------------------------------------------------------------
  Total lattice energy       =         -17.02262572 eV
--------------------------------------------------------------------------------
  Total lattice energy       =           -1642.4232 kJ/(mole unit cells)
--------------------------------------------------------------------------------

  Born effective charge tensors : 

-------------------------------------------------------------------------------
  Atom             x           y             z
-------------------------------------------------------------------------------
   1 Te1   x      -0.2600      0.0000      0.0000
           y       0.0000     -0.2600      0.0000
           z       0.0000      0.0000     -0.2600
-------------------------------------------------------------------------------
   2 Te1   x      -0.2600      0.0000      0.0000
           y       0.0000     -0.2600      0.0000
           z       0.0000      0.0000     -0.2600
-------------------------------------------------------------------------------
   3 Te2   x      -0.2400      0.0000      0.0000
           y       0.0000     -0.2400      0.0000
           z       0.0000      0.0000     -0.2400
-------------------------------------------------------------------------------
   4 Bi    x       0.3800      0.0000      0.0000
           y       0.0000      0.3800      0.0000
           z       0.0000      0.0000      0.3800
-------------------------------------------------------------------------------
   5 Bi    x       0.3800      0.0000      0.0000
           y       0.0000      0.3800      0.0000
           z       0.0000      0.0000      0.3800
-------------------------------------------------------------------------------




  Elastic Constant Matrix: (Units=GPa)

-------------------------------------------------------------------------------
  Indices      1         2         3         4         5         6    
-------------------------------------------------------------------------------
       1     58.6297   25.1263   31.9997   -6.3418   -2.3747   -3.9878
       2     25.1263   69.5491   25.1345    8.3890   11.8073    1.5009
       3     31.9997   25.1345   62.8050   -2.1665   -9.9824    1.5636
       4     -6.3418    8.3890   -2.1665   27.4003    0.8714   11.3951
       5     -2.3747   11.8073   -9.9824    0.8714   31.2265   -6.4313
       6     -3.9878    1.5009    1.5636   11.3951   -6.4313   24.2562
-------------------------------------------------------------------------------


  Elastic Compliance Matrix: (Units=1/GPa)

-------------------------------------------------------------------------------
  Indices      1         2         3         4         5         6    
-------------------------------------------------------------------------------
       1    0.026660 -0.007011 -0.010351  0.006162  0.001831  0.003075
       2   -0.007011  0.022630 -0.007572 -0.008268 -0.011535 -0.001239
       3   -0.010351 -0.007572  0.025929  0.002180  0.010043 -0.001266
       4    0.006162 -0.008268  0.002180  0.050086 -0.001763 -0.022613
       5    0.001831 -0.011535  0.010043 -0.001763  0.042343  0.012423
       6    0.003075 -0.001239 -0.001266 -0.022613  0.012423  0.055807
-------------------------------------------------------------------------------

 Mechanical properties :

-------------------------------------------------------------------------------
  Convention :                    Reuss         Voigt         Hill
-------------------------------------------------------------------------------
  Bulk  Modulus (GPa)     =      39.44512      39.50054      39.47283
  Shear Modulus (GPa)     =      17.74470      23.82482      20.78476
-------------------------------------------------------------------------------
  Velocity S-wave (km/s)  =       4.66639       5.40707       5.05033
  Velocity P-wave (km/s)  =       8.79990       9.35171       9.08000
-------------------------------------------------------------------------------
  Compressibility (1/GPa) =    0.02535168
-------------------------------------------------------------------------------
  Stress axis :                     x             y             z
-------------------------------------------------------------------------------
  Youngs Moduli (GPa)     =      37.50925      44.18889      38.56642
-------------------------------------------------------------------------------
  Poissons Ratio (x)      =                     0.30983       0.39918
  Poissons Ratio (y)      =       0.26299                     0.29202
  Poissons Ratio (z)      =       0.38824       0.33459
-------------------------------------------------------------------------------


  Piezoelectric Strain Matrix: (Units=C/m**2)

-------------------------------------------------------------------------------
  Indices      1         2         3         4         5         6    
-------------------------------------------------------------------------------
       x     0.00803  -0.03331  -0.04213   0.00814   0.00641   0.01076
       y     0.00420  -0.00969  -0.00914  -0.02932   0.00814  -0.00306
       z     0.00250  -0.03323   0.02202  -0.00258  -0.01188   0.00814
-------------------------------------------------------------------------------


  Piezoelectric Stress Matrix: (Units=10**-11 C/N)

-------------------------------------------------------------------------------
  Indices      1         2         3         4         5         6    
-------------------------------------------------------------------------------
       x     0.09786  -0.06456  -0.08548   0.03859   0.03666   0.06156
       y     0.00993  -0.00271  -0.01855  -0.13279   0.03859   0.06300
       z     0.00592  -0.07881   0.06615   0.00459   0.02117   0.03859
-------------------------------------------------------------------------------


  Static dielectric constant tensor : 

-------------------------------------------------------------------------------
              x         y         z
-------------------------------------------------------------------------------
       x     1.05559  -0.00020  -0.00012
       y    -0.00020   1.05647  -0.00003
       z    -0.00012  -0.00003   1.05650
--------------------------------------------------------------------------------

  Static refractive indices : 

-------------------------------------------------------------------------------
    1 =    1.02739      2 =    1.02787      3 =    1.02787
-------------------------------------------------------------------------------


  Time to end of properties =       0.0160 seconds


********************************************************************************
*  Output for configuration   2                                                *
********************************************************************************


  Components of energy : 

--------------------------------------------------------------------------------
  Interatomic potentials     =         -15.40626623 eV
  Monopole - monopole (real) =          -0.37015836 eV
  Monopole - monopole (recip)=          -1.24620113 eV
  Monopole - monopole (total)=          -1.61635949 eV
--------------------------------------------------------------------------------
  Total lattice energy       =         -17.02262572 eV
--------------------------------------------------------------------------------
  Total lattice energy       =           -1642.4232 kJ/(mole unit cells)
--------------------------------------------------------------------------------


  Number of variables =     18

  Maximum number of calculations  =          1000
  Maximum Hessian update interval =            10
  Maximum step size               =   1.000000000
  Maximum parameter tolerance     =   0.000010000
  Maximum function  tolerance     =   0.000010000
  Maximum gradient  tolerance     =   0.001000000
  Maximum gradient  component     =   0.010000000

  Symmetry not applied to optimisation

  Cell parameters to be optimised using strains

  Newton-Raphson optimiser to be used

  BFGS hessian update to be used

  Start of bulk optimisation :

  Cycle:      0 Energy:       -17.022626  Gnorm:      0.220353  CPU:    0.020
  ** Hessian calculated **
  Cycle:      1 Energy:       -17.036842  Gnorm:      0.013241  CPU:    0.028
  Cycle:      2 Energy:       -17.036950  Gnorm:      0.000744  CPU:    0.032


  **** Optimisation achieved ****


  Final energy =     -17.03695145 eV
  Final Gnorm  =       0.00006913

  Components of energy : 

--------------------------------------------------------------------------------
  Interatomic potentials     =         -15.44039793 eV
  Monopole - monopole (real) =          -0.37230074 eV
  Monopole - monopole (recip)=          -1.22425279 eV
  Monopole - monopole (total)=          -1.59655353 eV
--------------------------------------------------------------------------------
  Total lattice energy       =         -17.03695145 eV
--------------------------------------------------------------------------------
  Total lattice energy       =           -1643.8054 kJ/(mole unit cells)
--------------------------------------------------------------------------------

  Final fractional coordinates of atoms :

--------------------------------------------------------------------------------
   No.  Atomic        x           y          z          Radius
        Label       (Frac)      (Frac)     (Frac)       (Angs) 
--------------------------------------------------------------------------------
     1  Te1   c     0.208800    0.208800    0.208800    0.000000
     2  Te1   c     0.788400    0.788400    0.788400    0.000000
     3  Te2   c     0.998600    0.998600    0.998600    0.000000
     4  Bi    c     0.397567    0.397567    0.397567    0.000000
     5  Bi    c     0.599634    0.599634    0.599634    0.000000
--------------------------------------------------------------------------------

  Final Cartesian lattice vectors (Angstroms) :

       10.428356    0.058540    0.034860
        9.514421    4.269639    0.034860
        9.514421    2.064914    3.737267


  Final cell parameters and derivatives :

--------------------------------------------------------------------------------
       a           10.428578 Angstrom     dE/de1(xx)    -0.000268 eV/strain
       b           10.428578 Angstrom     dE/de2(yy)    -0.000269 eV/strain
       c           10.428578 Angstrom     dE/de3(zz)    -0.000269 eV/strain
       alpha       23.846609 Degrees      dE/de4(yz)     0.000000 eV/strain
       beta        23.846609 Degrees      dE/de5(xz)     0.000000 eV/strain
       gamma       23.846609 Degrees      dE/de6(xy)     0.000000 eV/strain
--------------------------------------------------------------------------------

  Primitive cell volume =           162.858971 Angs**3

  Density of cell =      8.164821 g/cm**3

  Non-primitive cell volume =           162.858971 Angs**3


  Final internal derivatives :

--------------------------------------------------------------------------------
   No.  Atomic          x             y             z           Radius
        Label          (eV)          (eV)          (eV)        (eV/Angs)
--------------------------------------------------------------------------------
      1 Te1   c       0.000000      0.000000      0.000000      0.000000
      2 Te1   c      -0.000523     -0.000523     -0.000523      0.000000
      3 Te2   c       0.000404      0.000404      0.000404      0.000000
      4 Bi    c      -0.000024     -0.000024     -0.000024      0.000000
      5 Bi    c       0.000082      0.000082      0.000082      0.000000
--------------------------------------------------------------------------------
  Maximum abs         0.000523      0.000523      0.000523      0.000000
--------------------------------------------------------------------------------


  Born effective charge tensors : 

-------------------------------------------------------------------------------
  Atom             x           y             z
-------------------------------------------------------------------------------
   1 Te1   x      -0.2600      0.0000      0.0000
           y       0.0000     -0.2600      0.0000
           z       0.0000      0.0000     -0.2600
-------------------------------------------------------------------------------
   2 Te1   x      -0.2600      0.0000      0.0000
           y       0.0000     -0.2600      0.0000
           z       0.0000      0.0000     -0.2600
-------------------------------------------------------------------------------
   3 Te2   x      -0.2400      0.0000      0.0000
           y       0.0000     -0.2400      0.0000
           z       0.0000      0.0000     -0.2400
-------------------------------------------------------------------------------
   4 Bi    x       0.3800      0.0000      0.0000
           y       0.0000      0.3800      0.0000
           z       0.0000      0.0000      0.3800
-------------------------------------------------------------------------------
   5 Bi    x       0.3800      0.0000      0.0000
           y       0.0000      0.3800      0.0000
           z       0.0000      0.0000      0.3800
-------------------------------------------------------------------------------




  Elastic Constant Matrix: (Units=GPa)

-------------------------------------------------------------------------------
  Indices      1         2         3         4         5         6    
-------------------------------------------------------------------------------
       1     51.3833   22.2994   27.4695   -4.7702   -1.7141   -2.8785
       2     22.2994   74.2981   26.4993    6.3627    9.0520   -2.3405
       3     27.4695   26.4993   69.8282   -2.2385  -10.3142    0.2210
       4     -4.7702    6.3627   -2.2385   28.3874   -0.5403    8.5987
       5     -1.7141    9.0520  -10.3142   -0.5403   26.0153   -4.8686
       6     -2.8785   -2.3405    0.2210    8.5987   -4.8686   20.7387
-------------------------------------------------------------------------------


  Elastic Compliance Matrix: (Units=1/GPa)

-------------------------------------------------------------------------------
  Indices      1         2         3         4         5         6    
-------------------------------------------------------------------------------
       1    0.026788 -0.005597 -0.008143  0.004698  0.000848  0.001424
       2   -0.005597  0.019342 -0.006767 -0.006587 -0.009550  0.001967
       3   -0.008143 -0.006767  0.021694  0.002246  0.010348 -0.000627
       4    0.004698 -0.006587  0.002246  0.043057  0.001071 -0.017716
       5    0.000848 -0.009550  0.010348  0.001071  0.047757  0.009697
       6    0.001424  0.001967 -0.000627 -0.017716  0.009697  0.058267
-------------------------------------------------------------------------------

 Mechanical properties :

-------------------------------------------------------------------------------
  Convention :                    Reuss         Voigt         Hill
-------------------------------------------------------------------------------
  Bulk  Modulus (GPa)     =      37.29592      38.67176      37.98384
  Shear Modulus (GPa)     =      18.73679      22.97771      20.85725
-------------------------------------------------------------------------------
  Velocity S-wave (km/s)  =       4.79043       5.30493       5.05423
  Velocity P-wave (km/s)  =       8.73364       9.21341       8.97673
-------------------------------------------------------------------------------
  Compressibility (1/GPa) =    0.02681258
-------------------------------------------------------------------------------
  Stress axis :                     x             y             z
-------------------------------------------------------------------------------
  Youngs Moduli (GPa)     =      37.33053      51.70106      46.09477
-------------------------------------------------------------------------------
  Poissons Ratio (x)      =                     0.28935       0.37533
  Poissons Ratio (y)      =       0.20892                     0.31190
  Poissons Ratio (z)      =       0.30397       0.34984
-------------------------------------------------------------------------------


  Piezoelectric Strain Matrix: (Units=C/m**2)

-------------------------------------------------------------------------------
  Indices      1         2         3         4         5         6    
-------------------------------------------------------------------------------
       x    -0.00000   0.00000   0.00000  -0.00000  -0.00000  -0.00000
       y     0.00000  -0.00000   0.00000   0.00000  -0.00000  -0.00000
       z     0.00000   0.00000  -0.00000  -0.00000  -0.00000  -0.00000
-------------------------------------------------------------------------------


  Piezoelectric Stress Matrix: (Units=10**-11 C/N)

-------------------------------------------------------------------------------
  Indices      1         2         3         4         5         6    
-------------------------------------------------------------------------------
       x    -0.00001   0.00000   0.00000  -0.00000  -0.00000  -0.00000
       y    -0.00000  -0.00000   0.00000   0.00000  -0.00000  -0.00001
       z    -0.00000   0.00000  -0.00000  -0.00000  -0.00001  -0.00000
-------------------------------------------------------------------------------


  Static dielectric constant tensor : 

-------------------------------------------------------------------------------
              x         y         z
-------------------------------------------------------------------------------
       x     1.05278  -0.00077  -0.00046
       y    -0.00077   1.05615  -0.00010
       z    -0.00046  -0.00010   1.05626
--------------------------------------------------------------------------------

  Static refractive indices : 

-------------------------------------------------------------------------------
    1 =    1.02594      2 =    1.02777      3 =    1.02777
-------------------------------------------------------------------------------


  Time to end of optimisation =       0.0400 seconds


  Peak dynamic memory used =       0.47 MB 


  Timing analysis for GULP :

--------------------------------------------------------------------------------
  Task / Subroutine                                          Time (Seconds)
--------------------------------------------------------------------------------
  Calculation of real space energy and derivatives                0.0280
--------------------------------------------------------------------------------
  Total CPU time                                                  0.0400
--------------------------------------------------------------------------------



  **** GULP has completed with 1 warning - beware! ****

  Job Finished at 15:41.23 21st June       2010                               

