********************************************************************************
*                       GENERAL UTILITY LATTICE PROGRAM                        *
*                                 Julian Gale                                  *
*                      Nanochemistry Research Institute                        *
*             Curtin University of Technology, Western Australia               *
********************************************************************************
* Version = 3.4.7 * Last modified =  21st July 2009                            *
********************************************************************************
*  fit          - perform fitting run                                          *
*  relax        - relax structure during fitting                               *
********************************************************************************

  Job Started  at 15:36.43  2nd June       2010                               

  Number of CPUs =     1


  Total number of configurations input =  73

********************************************************************************
*  Input for Configuration =   1                                               *
********************************************************************************

  Formula = Te3Bi2                                                      

  Number of irreducible atoms/shells =       5


  Total number atoms/shells =       5

  Dimensionality = 3               :  Bulk   



  Cartesian lattice vectors (Angstroms) :

       10.268280    0.000000    0.000000
        9.344146    4.257289    0.000000
        9.344146    2.028343    3.743038

  Cell parameters (Angstroms/Degrees):

  a =      10.2683    alpha =  24.4945
  b =      10.2683    beta  =  24.4945
  c =      10.2683    gamma =  24.4945

  Initial cell volume =         163.627070 Angs**3

  Temperature of configuration =  0.000     K 

  Pressure of configuration =         0.000 GPa 

  Fractional coordinates of asymmetric unit :

--------------------------------------------------------------------------------
   No.  Atomic       x           y          z         Charge      Occupancy
        Label      (Frac)      (Frac)     (Frac)        (e)         (Frac)  
--------------------------------------------------------------------------------
      1 Te2   c    0.000000    0.000000    0.000000     -0.2400    1.000000    
      2 Te1   c    0.208837    0.208837    0.208837     -0.2600    1.000000    
      3 Bi    c    0.400389    0.400389    0.400389      0.3800    1.000000    
      4 Bi    c    0.599611    0.599611    0.599611      0.3800    1.000000    
      5 Te1   c    0.791163    0.791163    0.791163     -0.2600    1.000000    
--------------------------------------------------------------------------------



********************************************************************************
*  Input for Configuration =   2                                               *
********************************************************************************

  Formula = Te3Bi2                                                      

  Number of irreducible atoms/shells =       5


  Total number atoms/shells =       5

  Dimensionality = 3               :  Bulk   



  Cartesian lattice vectors (Angstroms) :

       10.268280    0.000000    0.000000
        9.344146    4.257289    0.000000
        9.344146    2.028343    3.743038

  Cell parameters (Angstroms/Degrees):

  a =      10.2683    alpha =  24.4945
  b =      10.2683    beta  =  24.4945
  c =      10.2683    gamma =  24.4945

  Initial cell volume =         163.627070 Angs**3

  Temperature of configuration =  0.000     K 

  Pressure of configuration =         0.000 GPa 

  Fractional coordinates of asymmetric unit :

--------------------------------------------------------------------------------
   No.  Atomic       x           y          z         Charge      Occupancy
        Label      (Frac)      (Frac)     (Frac)        (e)         (Frac)  
--------------------------------------------------------------------------------
      1 Te2   c    0.000000    0.000000    0.000000     -0.2400    1.000000    
      2 Te1   c    0.209837    0.208837    0.208837     -0.2600    1.000000    
      3 Bi    c    0.400389    0.400389    0.400389      0.3800    1.000000    
      4 Bi    c    0.599611    0.599611    0.599611      0.3800    1.000000    
      5 Te1   c    0.791163    0.791163    0.791163     -0.2600    1.000000    
--------------------------------------------------------------------------------



********************************************************************************
*  Input for Configuration =   3                                               *
********************************************************************************

  Formula = Te3Bi2                                                      

  Number of irreducible atoms/shells =       5


  Total number atoms/shells =       5

  Dimensionality = 3               :  Bulk   



  Cartesian lattice vectors (Angstroms) :

       10.268280    0.000000    0.000000
        9.344146    4.257289    0.000000
        9.344146    2.028343    3.743038

  Cell parameters (Angstroms/Degrees):

  a =      10.2683    alpha =  24.4945
  b =      10.2683    beta  =  24.4945
  c =      10.2683    gamma =  24.4945

  Initial cell volume =         163.627070 Angs**3

  Temperature of configuration =  0.000     K 

  Pressure of configuration =         0.000 GPa 

  Fractional coordinates of asymmetric unit :

--------------------------------------------------------------------------------
   No.  Atomic       x           y          z         Charge      Occupancy
        Label      (Frac)      (Frac)     (Frac)        (e)         (Frac)  
--------------------------------------------------------------------------------
      1 Te2   c    0.000000    0.000000    0.000000     -0.2400    1.000000    
      2 Te1   c    0.210837    0.208837    0.208837     -0.2600    1.000000    
      3 Bi    c    0.400389    0.400389    0.400389      0.3800    1.000000    
      4 Bi    c    0.599611    0.599611    0.599611      0.3800    1.000000    
      5 Te1   c    0.791163    0.791163    0.791163     -0.2600    1.000000    
--------------------------------------------------------------------------------



********************************************************************************
*  Input for Configuration =   4                                               *
********************************************************************************

  Formula = Te3Bi2                                                      

  Number of irreducible atoms/shells =       5


  Total number atoms/shells =       5

  Dimensionality = 3               :  Bulk   



  Cartesian lattice vectors (Angstroms) :

       10.268280    0.000000    0.000000
        9.344146    4.257289    0.000000
        9.344146    2.028343    3.743038

  Cell parameters (Angstroms/Degrees):

  a =      10.2683    alpha =  24.4945
  b =      10.2683    beta  =  24.4945
  c =      10.2683    gamma =  24.4945

  Initial cell volume =         163.627070 Angs**3

  Temperature of configuration =  0.000     K 

  Pressure of configuration =         0.000 GPa 

  Fractional coordinates of asymmetric unit :

--------------------------------------------------------------------------------
   No.  Atomic       x           y          z         Charge      Occupancy
        Label      (Frac)      (Frac)     (Frac)        (e)         (Frac)  
--------------------------------------------------------------------------------
      1 Te2   c    0.000000    0.000000    0.000000     -0.2400    1.000000    
      2 Te1   c    0.211837    0.208837    0.208837     -0.2600    1.000000    
      3 Bi    c    0.400389    0.400389    0.400389      0.3800    1.000000    
      4 Bi    c    0.599611    0.599611    0.599611      0.3800    1.000000    
      5 Te1   c    0.791163    0.791163    0.791163     -0.2600    1.000000    
--------------------------------------------------------------------------------



********************************************************************************
*  Input for Configuration =   5                                               *
********************************************************************************

  Formula = Te3Bi2                                                      

  Number of irreducible atoms/shells =       5


  Total number atoms/shells =       5

  Dimensionality = 3               :  Bulk   



  Cartesian lattice vectors (Angstroms) :

       10.268280    0.000000    0.000000
        9.344146    4.257289    0.000000
        9.344146    2.028343    3.743038

  Cell parameters (Angstroms/Degrees):

  a =      10.2683    alpha =  24.4945
  b =      10.2683    beta  =  24.4945
  c =      10.2683    gamma =  24.4945

  Initial cell volume =         163.627070 Angs**3

  Temperature of configuration =  0.000     K 

  Pressure of configuration =         0.000 GPa 

  Fractional coordinates of asymmetric unit :

--------------------------------------------------------------------------------
   No.  Atomic       x           y          z         Charge      Occupancy
        Label      (Frac)      (Frac)     (Frac)        (e)         (Frac)  
--------------------------------------------------------------------------------
      1 Te2   c    0.000000    0.000000    0.000000     -0.2400    1.000000    
      2 Te1   c    0.212837    0.208837    0.208837     -0.2600    1.000000    
      3 Bi    c    0.400389    0.400389    0.400389      0.3800    1.000000    
      4 Bi    c    0.599611    0.599611    0.599611      0.3800    1.000000    
      5 Te1   c    0.791163    0.791163    0.791163     -0.2600    1.000000    
--------------------------------------------------------------------------------



********************************************************************************
*  Input for Configuration =   6                                               *
********************************************************************************

  Formula = Te3Bi2                                                      

  Number of irreducible atoms/shells =       5


  Total number atoms/shells =       5

  Dimensionality = 3               :  Bulk   



  Cartesian lattice vectors (Angstroms) :

       10.268280    0.000000    0.000000
        9.344146    4.257289    0.000000
        9.344146    2.028343    3.743038

  Cell parameters (Angstroms/Degrees):

  a =      10.2683    alpha =  24.4945
  b =      10.2683    beta  =  24.4945
  c =      10.2683    gamma =  24.4945

  Initial cell volume =         163.627070 Angs**3

  Temperature of configuration =  0.000     K 

  Pressure of configuration =         0.000 GPa 

  Fractional coordinates of asymmetric unit :

--------------------------------------------------------------------------------
   No.  Atomic       x           y          z         Charge      Occupancy
        Label      (Frac)      (Frac)     (Frac)        (e)         (Frac)  
--------------------------------------------------------------------------------
      1 Te2   c    0.000000    0.000000    0.000000     -0.2400    1.000000    
      2 Te1   c    0.213837    0.208837    0.208837     -0.2600    1.000000    
      3 Bi    c    0.400389    0.400389    0.400389      0.3800    1.000000    
      4 Bi    c    0.599611    0.599611    0.599611      0.3800    1.000000    
      5 Te1   c    0.791163    0.791163    0.791163     -0.2600    1.000000    
--------------------------------------------------------------------------------



********************************************************************************
*  Input for Configuration =   7                                               *
********************************************************************************

  Formula = Te3Bi2                                                      

  Number of irreducible atoms/shells =       5


  Total number atoms/shells =       5

  Dimensionality = 3               :  Bulk   



  Cartesian lattice vectors (Angstroms) :

       10.268280    0.000000    0.000000
        9.344146    4.257289    0.000000
        9.344146    2.028343    3.743038

  Cell parameters (Angstroms/Degrees):

  a =      10.2683    alpha =  24.4945
  b =      10.2683    beta  =  24.4945
  c =      10.2683    gamma =  24.4945

  Initial cell volume =         163.627070 Angs**3

  Temperature of configuration =  0.000     K 

  Pressure of configuration =         0.000 GPa 

  Fractional coordinates of asymmetric unit :

--------------------------------------------------------------------------------
   No.  Atomic       x           y          z         Charge      Occupancy
        Label      (Frac)      (Frac)     (Frac)        (e)         (Frac)  
--------------------------------------------------------------------------------
      1 Te2   c    0.000000    0.000000    0.000000     -0.2400    1.000000    
      2 Te1   c    0.214837    0.208837    0.208837     -0.2600    1.000000    
      3 Bi    c    0.400389    0.400389    0.400389      0.3800    1.000000    
      4 Bi    c    0.599611    0.599611    0.599611      0.3800    1.000000    
      5 Te1   c    0.791163    0.791163    0.791163     -0.2600    1.000000    
--------------------------------------------------------------------------------



********************************************************************************
*  Input for Configuration =   8                                               *
********************************************************************************

  Formula = Te3Bi2                                                      

  Number of irreducible atoms/shells =       5


  Total number atoms/shells =       5

  Dimensionality = 3               :  Bulk   



  Cartesian lattice vectors (Angstroms) :

       10.268280    0.000000    0.000000
        9.344146    4.257289    0.000000
        9.344146    2.028343    3.743038

  Cell parameters (Angstroms/Degrees):

  a =      10.2683    alpha =  24.4945
  b =      10.2683    beta  =  24.4945
  c =      10.2683    gamma =  24.4945

  Initial cell volume =         163.627070 Angs**3

  Temperature of configuration =  0.000     K 

  Pressure of configuration =         0.000 GPa 

  Fractional coordinates of asymmetric unit :

--------------------------------------------------------------------------------
   No.  Atomic       x           y          z         Charge      Occupancy
        Label      (Frac)      (Frac)     (Frac)        (e)         (Frac)  
--------------------------------------------------------------------------------
      1 Te2   c    0.000000    0.000000    0.000000     -0.2400    1.000000    
      2 Te1   c    0.215837    0.208837    0.208837     -0.2600    1.000000    
      3 Bi    c    0.400389    0.400389    0.400389      0.3800    1.000000    
      4 Bi    c    0.599611    0.599611    0.599611      0.3800    1.000000    
      5 Te1   c    0.791163    0.791163    0.791163     -0.2600    1.000000    
--------------------------------------------------------------------------------



********************************************************************************
*  Input for Configuration =   9                                               *
********************************************************************************

  Formula = Te3Bi2                                                      

  Number of irreducible atoms/shells =       5


  Total number atoms/shells =       5

  Dimensionality = 3               :  Bulk   



  Cartesian lattice vectors (Angstroms) :

       10.268280    0.000000    0.000000
        9.344146    4.257289    0.000000
        9.344146    2.028343    3.743038

  Cell parameters (Angstroms/Degrees):

  a =      10.2683    alpha =  24.4945
  b =      10.2683    beta  =  24.4945
  c =      10.2683    gamma =  24.4945

  Initial cell volume =         163.627070 Angs**3

  Temperature of configuration =  0.000     K 

  Pressure of configuration =         0.000 GPa 

  Fractional coordinates of asymmetric unit :

--------------------------------------------------------------------------------
   No.  Atomic       x           y          z         Charge      Occupancy
        Label      (Frac)      (Frac)     (Frac)        (e)         (Frac)  
--------------------------------------------------------------------------------
      1 Te2   c    0.000000    0.000000    0.000000     -0.2400    1.000000    
      2 Te1   c    0.216837    0.208837    0.208837     -0.2600    1.000000    
      3 Bi    c    0.400389    0.400389    0.400389      0.3800    1.000000    
      4 Bi    c    0.599611    0.599611    0.599611      0.3800    1.000000    
      5 Te1   c    0.791163    0.791163    0.791163     -0.2600    1.000000    
--------------------------------------------------------------------------------



********************************************************************************
*  Input for Configuration =  10                                               *
********************************************************************************

  Formula = Te3Bi2                                                      

  Number of irreducible atoms/shells =       5


  Total number atoms/shells =       5

  Dimensionality = 3               :  Bulk   



  Cartesian lattice vectors (Angstroms) :

       10.268280    0.000000    0.000000
        9.344146    4.257289    0.000000
        9.344146    2.028343    3.743038

  Cell parameters (Angstroms/Degrees):

  a =      10.2683    alpha =  24.4945
  b =      10.2683    beta  =  24.4945
  c =      10.2683    gamma =  24.4945

  Initial cell volume =         163.627070 Angs**3

  Temperature of configuration =  0.000     K 

  Pressure of configuration =         0.000 GPa 

  Fractional coordinates of asymmetric unit :

--------------------------------------------------------------------------------
   No.  Atomic       x           y          z         Charge      Occupancy
        Label      (Frac)      (Frac)     (Frac)        (e)         (Frac)  
--------------------------------------------------------------------------------
      1 Te2   c    0.000000    0.000000    0.000000     -0.2400    1.000000    
      2 Te1   c    0.217837    0.208837    0.208837     -0.2600    1.000000    
      3 Bi    c    0.400389    0.400389    0.400389      0.3800    1.000000    
      4 Bi    c    0.599611    0.599611    0.599611      0.3800    1.000000    
      5 Te1   c    0.791163    0.791163    0.791163     -0.2600    1.000000    
--------------------------------------------------------------------------------



********************************************************************************
*  Input for Configuration =  11                                               *
********************************************************************************

  Formula = Te3Bi2                                                      

  Number of irreducible atoms/shells =       5


  Total number atoms/shells =       5

  Dimensionality = 3               :  Bulk   



  Cartesian lattice vectors (Angstroms) :

       10.268280    0.000000    0.000000
        9.344146    4.257289    0.000000
        9.344146    2.028343    3.743038

  Cell parameters (Angstroms/Degrees):

  a =      10.2683    alpha =  24.4945
  b =      10.2683    beta  =  24.4945
  c =      10.2683    gamma =  24.4945

  Initial cell volume =         163.627070 Angs**3

  Temperature of configuration =  0.000     K 

  Pressure of configuration =         0.000 GPa 

  Fractional coordinates of asymmetric unit :

--------------------------------------------------------------------------------
   No.  Atomic       x           y          z         Charge      Occupancy
        Label      (Frac)      (Frac)     (Frac)        (e)         (Frac)  
--------------------------------------------------------------------------------
      1 Te2   c    0.000000    0.000000    0.000000     -0.2400    1.000000    
      2 Te1   c    0.208837    0.208837    0.208837     -0.2600    1.000000    
      3 Bi    c    0.401389    0.400389    0.400389      0.3800    1.000000    
      4 Bi    c    0.599611    0.599611    0.599611      0.3800    1.000000    
      5 Te1   c    0.791163    0.791163    0.791163     -0.2600    1.000000    
--------------------------------------------------------------------------------



********************************************************************************
*  Input for Configuration =  12                                               *
********************************************************************************

  Formula = Te3Bi2                                                      

  Number of irreducible atoms/shells =       5


  Total number atoms/shells =       5

  Dimensionality = 3               :  Bulk   



  Cartesian lattice vectors (Angstroms) :

       10.268280    0.000000    0.000000
        9.344146    4.257289    0.000000
        9.344146    2.028343    3.743038

  Cell parameters (Angstroms/Degrees):

  a =      10.2683    alpha =  24.4945
  b =      10.2683    beta  =  24.4945
  c =      10.2683    gamma =  24.4945

  Initial cell volume =         163.627070 Angs**3

  Temperature of configuration =  0.000     K 

  Pressure of configuration =         0.000 GPa 

  Fractional coordinates of asymmetric unit :

--------------------------------------------------------------------------------
   No.  Atomic       x           y          z         Charge      Occupancy
        Label      (Frac)      (Frac)     (Frac)        (e)         (Frac)  
--------------------------------------------------------------------------------
      1 Te2   c    0.000000    0.000000    0.000000     -0.2400    1.000000    
      2 Te1   c    0.208837    0.208837    0.208837     -0.2600    1.000000    
      3 Bi    c    0.402389    0.400389    0.400389      0.3800    1.000000    
      4 Bi    c    0.599611    0.599611    0.599611      0.3800    1.000000    
      5 Te1   c    0.791163    0.791163    0.791163     -0.2600    1.000000    
--------------------------------------------------------------------------------



********************************************************************************
*  Input for Configuration =  13                                               *
********************************************************************************

  Formula = Te3Bi2                                                      

  Number of irreducible atoms/shells =       5


  Total number atoms/shells =       5

  Dimensionality = 3               :  Bulk   



  Cartesian lattice vectors (Angstroms) :

       10.268280    0.000000    0.000000
        9.344146    4.257289    0.000000
        9.344146    2.028343    3.743038

  Cell parameters (Angstroms/Degrees):

  a =      10.2683    alpha =  24.4945
  b =      10.2683    beta  =  24.4945
  c =      10.2683    gamma =  24.4945

  Initial cell volume =         163.627070 Angs**3

  Temperature of configuration =  0.000     K 

  Pressure of configuration =         0.000 GPa 

  Fractional coordinates of asymmetric unit :

--------------------------------------------------------------------------------
   No.  Atomic       x           y          z         Charge      Occupancy
        Label      (Frac)      (Frac)     (Frac)        (e)         (Frac)  
--------------------------------------------------------------------------------
      1 Te2   c    0.000000    0.000000    0.000000     -0.2400    1.000000    
      2 Te1   c    0.208837    0.208837    0.208837     -0.2600    1.000000    
      3 Bi    c    0.403389    0.400389    0.400389      0.3800    1.000000    
      4 Bi    c    0.599611    0.599611    0.599611      0.3800    1.000000    
      5 Te1   c    0.791163    0.791163    0.791163     -0.2600    1.000000    
--------------------------------------------------------------------------------



********************************************************************************
*  Input for Configuration =  14                                               *
********************************************************************************

  Formula = Te3Bi2                                                      

  Number of irreducible atoms/shells =       5


  Total number atoms/shells =       5

  Dimensionality = 3               :  Bulk   



  Cartesian lattice vectors (Angstroms) :

       10.268280    0.000000    0.000000
        9.344146    4.257289    0.000000
        9.344146    2.028343    3.743038

  Cell parameters (Angstroms/Degrees):

  a =      10.2683    alpha =  24.4945
  b =      10.2683    beta  =  24.4945
  c =      10.2683    gamma =  24.4945

  Initial cell volume =         163.627070 Angs**3

  Temperature of configuration =  0.000     K 

  Pressure of configuration =         0.000 GPa 

  Fractional coordinates of asymmetric unit :

--------------------------------------------------------------------------------
   No.  Atomic       x           y          z         Charge      Occupancy
        Label      (Frac)      (Frac)     (Frac)        (e)         (Frac)  
--------------------------------------------------------------------------------
      1 Te2   c    0.000000    0.000000    0.000000     -0.2400    1.000000    
      2 Te1   c    0.208837    0.208837    0.208837     -0.2600    1.000000    
      3 Bi    c    0.404389    0.400389    0.400389      0.3800    1.000000    
      4 Bi    c    0.599611    0.599611    0.599611      0.3800    1.000000    
      5 Te1   c    0.791163    0.791163    0.791163     -0.2600    1.000000    
--------------------------------------------------------------------------------



********************************************************************************
*  Input for Configuration =  15                                               *
********************************************************************************

  Formula = Te3Bi2                                                      

  Number of irreducible atoms/shells =       5


  Total number atoms/shells =       5

  Dimensionality = 3               :  Bulk   



  Cartesian lattice vectors (Angstroms) :

       10.268280    0.000000    0.000000
        9.344146    4.257289    0.000000
        9.344146    2.028343    3.743038

  Cell parameters (Angstroms/Degrees):

  a =      10.2683    alpha =  24.4945
  b =      10.2683    beta  =  24.4945
  c =      10.2683    gamma =  24.4945

  Initial cell volume =         163.627070 Angs**3

  Temperature of configuration =  0.000     K 

  Pressure of configuration =         0.000 GPa 

  Fractional coordinates of asymmetric unit :

--------------------------------------------------------------------------------
   No.  Atomic       x           y          z         Charge      Occupancy
        Label      (Frac)      (Frac)     (Frac)        (e)         (Frac)  
--------------------------------------------------------------------------------
      1 Te2   c    0.000000    0.000000    0.000000     -0.2400    1.000000    
      2 Te1   c    0.208837    0.208837    0.208837     -0.2600    1.000000    
      3 Bi    c    0.405389    0.400389    0.400389      0.3800    1.000000    
      4 Bi    c    0.599611    0.599611    0.599611      0.3800    1.000000    
      5 Te1   c    0.791163    0.791163    0.791163     -0.2600    1.000000    
--------------------------------------------------------------------------------



********************************************************************************
*  Input for Configuration =  16                                               *
********************************************************************************

  Formula = Te3Bi2                                                      

  Number of irreducible atoms/shells =       5


  Total number atoms/shells =       5

  Dimensionality = 3               :  Bulk   



  Cartesian lattice vectors (Angstroms) :

       10.268280    0.000000    0.000000
        9.344146    4.257289    0.000000
        9.344146    2.028343    3.743038

  Cell parameters (Angstroms/Degrees):

  a =      10.2683    alpha =  24.4945
  b =      10.2683    beta  =  24.4945
  c =      10.2683    gamma =  24.4945

  Initial cell volume =         163.627070 Angs**3

  Temperature of configuration =  0.000     K 

  Pressure of configuration =         0.000 GPa 

  Fractional coordinates of asymmetric unit :

--------------------------------------------------------------------------------
   No.  Atomic       x           y          z         Charge      Occupancy
        Label      (Frac)      (Frac)     (Frac)        (e)         (Frac)  
--------------------------------------------------------------------------------
      1 Te2   c    0.000000    0.000000    0.000000     -0.2400    1.000000    
      2 Te1   c    0.208837    0.208837    0.208837     -0.2600    1.000000    
      3 Bi    c    0.406389    0.400389    0.400389      0.3800    1.000000    
      4 Bi    c    0.599611    0.599611    0.599611      0.3800    1.000000    
      5 Te1   c    0.791163    0.791163    0.791163     -0.2600    1.000000    
--------------------------------------------------------------------------------



********************************************************************************
*  Input for Configuration =  17                                               *
********************************************************************************

  Formula = Te3Bi2                                                      

  Number of irreducible atoms/shells =       5


  Total number atoms/shells =       5

  Dimensionality = 3               :  Bulk   



  Cartesian lattice vectors (Angstroms) :

       10.268280    0.000000    0.000000
        9.344146    4.257289    0.000000
        9.344146    2.028343    3.743038

  Cell parameters (Angstroms/Degrees):

  a =      10.2683    alpha =  24.4945
  b =      10.2683    beta  =  24.4945
  c =      10.2683    gamma =  24.4945

  Initial cell volume =         163.627070 Angs**3

  Temperature of configuration =  0.000     K 

  Pressure of configuration =         0.000 GPa 

  Fractional coordinates of asymmetric unit :

--------------------------------------------------------------------------------
   No.  Atomic       x           y          z         Charge      Occupancy
        Label      (Frac)      (Frac)     (Frac)        (e)         (Frac)  
--------------------------------------------------------------------------------
      1 Te2   c    0.000000    0.000000    0.000000     -0.2400    1.000000    
      2 Te1   c    0.208837    0.208837    0.208837     -0.2600    1.000000    
      3 Bi    c    0.407389    0.400389    0.400389      0.3800    1.000000    
      4 Bi    c    0.599611    0.599611    0.599611      0.3800    1.000000    
      5 Te1   c    0.791163    0.791163    0.791163     -0.2600    1.000000    
--------------------------------------------------------------------------------



********************************************************************************
*  Input for Configuration =  18                                               *
********************************************************************************

  Formula = Te3Bi2                                                      

  Number of irreducible atoms/shells =       5


  Total number atoms/shells =       5

  Dimensionality = 3               :  Bulk   



  Cartesian lattice vectors (Angstroms) :

       10.268280    0.000000    0.000000
        9.344146    4.257289    0.000000
        9.344146    2.028343    3.743038

  Cell parameters (Angstroms/Degrees):

  a =      10.2683    alpha =  24.4945
  b =      10.2683    beta  =  24.4945
  c =      10.2683    gamma =  24.4945

  Initial cell volume =         163.627070 Angs**3

  Temperature of configuration =  0.000     K 

  Pressure of configuration =         0.000 GPa 

  Fractional coordinates of asymmetric unit :

--------------------------------------------------------------------------------
   No.  Atomic       x           y          z         Charge      Occupancy
        Label      (Frac)      (Frac)     (Frac)        (e)         (Frac)  
--------------------------------------------------------------------------------
      1 Te2   c    0.000000    0.000000    0.000000     -0.2400    1.000000    
      2 Te1   c    0.208837    0.208837    0.208837     -0.2600    1.000000    
      3 Bi    c    0.408389    0.400389    0.400389      0.3800    1.000000    
      4 Bi    c    0.599611    0.599611    0.599611      0.3800    1.000000    
      5 Te1   c    0.791163    0.791163    0.791163     -0.2600    1.000000    
--------------------------------------------------------------------------------



********************************************************************************
*  Input for Configuration =  19                                               *
********************************************************************************

  Formula = Te3Bi2                                                      

  Number of irreducible atoms/shells =       5


  Total number atoms/shells =       5

  Dimensionality = 3               :  Bulk   



  Cartesian lattice vectors (Angstroms) :

       10.268280    0.000000    0.000000
        9.344146    4.257289    0.000000
        9.344146    2.028343    3.743038

  Cell parameters (Angstroms/Degrees):

  a =      10.2683    alpha =  24.4945
  b =      10.2683    beta  =  24.4945
  c =      10.2683    gamma =  24.4945

  Initial cell volume =         163.627070 Angs**3

  Temperature of configuration =  0.000     K 

  Pressure of configuration =         0.000 GPa 

  Fractional coordinates of asymmetric unit :

--------------------------------------------------------------------------------
   No.  Atomic       x           y          z         Charge      Occupancy
        Label      (Frac)      (Frac)     (Frac)        (e)         (Frac)  
--------------------------------------------------------------------------------
      1 Te2   c    0.000000    0.000000    0.000000     -0.2400    1.000000    
      2 Te1   c    0.208837    0.208837    0.208837     -0.2600    1.000000    
      3 Bi    c    0.409389    0.400389    0.400389      0.3800    1.000000    
      4 Bi    c    0.599611    0.599611    0.599611      0.3800    1.000000    
      5 Te1   c    0.791163    0.791163    0.791163     -0.2600    1.000000    
--------------------------------------------------------------------------------



********************************************************************************
*  Input for Configuration =  20                                               *
********************************************************************************

  Formula = Te3Bi2                                                      

  Number of irreducible atoms/shells =       5


  Total number atoms/shells =       5

  Dimensionality = 3               :  Bulk   



  Cartesian lattice vectors (Angstroms) :

       10.268280    0.000000    0.000000
        9.344146    4.257289    0.000000
        9.344146    2.028343    3.743038

  Cell parameters (Angstroms/Degrees):

  a =      10.2683    alpha =  24.4945
  b =      10.2683    beta  =  24.4945
  c =      10.2683    gamma =  24.4945

  Initial cell volume =         163.627070 Angs**3

  Temperature of configuration =  0.000     K 

  Pressure of configuration =         0.000 GPa 

  Fractional coordinates of asymmetric unit :

--------------------------------------------------------------------------------
   No.  Atomic       x           y          z         Charge      Occupancy
        Label      (Frac)      (Frac)     (Frac)        (e)         (Frac)  
--------------------------------------------------------------------------------
      1 Te2   c    0.000000    0.000000    0.000000     -0.2400    1.000000    
      2 Te1   c    0.218837    0.208837    0.208837     -0.2600    1.000000    
      3 Bi    c    0.400389    0.400389    0.400389      0.3800    1.000000    
      4 Bi    c    0.599611    0.599611    0.599611      0.3800    1.000000    
      5 Te1   c    0.791163    0.791163    0.791163     -0.2600    1.000000    
--------------------------------------------------------------------------------



********************************************************************************
*  Input for Configuration =  21                                               *
********************************************************************************

  Formula = Te3Bi2                                                      

  Number of irreducible atoms/shells =       5


  Total number atoms/shells =       5

  Dimensionality = 3               :  Bulk   



  Cartesian lattice vectors (Angstroms) :

       10.268280    0.000000    0.000000
        9.344146    4.257289    0.000000
        9.344146    2.028343    3.743038

  Cell parameters (Angstroms/Degrees):

  a =      10.2683    alpha =  24.4945
  b =      10.2683    beta  =  24.4945
  c =      10.2683    gamma =  24.4945

  Initial cell volume =         163.627070 Angs**3

  Temperature of configuration =  0.000     K 

  Pressure of configuration =         0.000 GPa 

  Fractional coordinates of asymmetric unit :

--------------------------------------------------------------------------------
   No.  Atomic       x           y          z         Charge      Occupancy
        Label      (Frac)      (Frac)     (Frac)        (e)         (Frac)  
--------------------------------------------------------------------------------
      1 Te2   c    0.000000    0.000000    0.000000     -0.2400    1.000000    
      2 Te1   c    0.208837    0.208837    0.208837     -0.2600    1.000000    
      3 Bi    c    0.410389    0.400389    0.400389      0.3800    1.000000    
      4 Bi    c    0.599611    0.599611    0.599611      0.3800    1.000000    
      5 Te1   c    0.791163    0.791163    0.791163     -0.2600    1.000000    
--------------------------------------------------------------------------------



********************************************************************************
*  Input for Configuration =  22                                               *
********************************************************************************

  Formula = Te3Bi2                                                      

  Number of irreducible atoms/shells =       5


  Total number atoms/shells =       5

  Dimensionality = 3               :  Bulk   



  Cartesian lattice vectors (Angstroms) :

       10.268280    0.000000    0.000000
        9.344146    4.257289    0.000000
        9.344146    2.028343    3.743038

  Cell parameters (Angstroms/Degrees):

  a =      10.2683    alpha =  24.4945
  b =      10.2683    beta  =  24.4945
  c =      10.2683    gamma =  24.4945

  Initial cell volume =         163.627070 Angs**3

  Temperature of configuration =  0.000     K 

  Pressure of configuration =         0.000 GPa 

  Fractional coordinates of asymmetric unit :

--------------------------------------------------------------------------------
   No.  Atomic       x           y          z         Charge      Occupancy
        Label      (Frac)      (Frac)     (Frac)        (e)         (Frac)  
--------------------------------------------------------------------------------
      1 Te2   c    0.000000    0.000000    0.000000     -0.2400    1.000000    
      2 Te1   c    0.209837    0.208837    0.208837     -0.2600    1.000000    
      3 Bi    c    0.401389    0.400389    0.400389      0.3800    1.000000    
      4 Bi    c    0.599611    0.599611    0.599611      0.3800    1.000000    
      5 Te1   c    0.791163    0.791163    0.791163     -0.2600    1.000000    
--------------------------------------------------------------------------------



********************************************************************************
*  Input for Configuration =  23                                               *
********************************************************************************

  Formula = Te3Bi2                                                      

  Number of irreducible atoms/shells =       5


  Total number atoms/shells =       5

  Dimensionality = 3               :  Bulk   



  Cartesian lattice vectors (Angstroms) :

       10.268280    0.000000    0.000000
        9.344146    4.257289    0.000000
        9.344146    2.028343    3.743038

  Cell parameters (Angstroms/Degrees):

  a =      10.2683    alpha =  24.4945
  b =      10.2683    beta  =  24.4945
  c =      10.2683    gamma =  24.4945

  Initial cell volume =         163.627070 Angs**3

  Temperature of configuration =  0.000     K 

  Pressure of configuration =         0.000 GPa 

  Fractional coordinates of asymmetric unit :

--------------------------------------------------------------------------------
   No.  Atomic       x           y          z         Charge      Occupancy
        Label      (Frac)      (Frac)     (Frac)        (e)         (Frac)  
--------------------------------------------------------------------------------
      1 Te2   c    0.000000    0.000000    0.000000     -0.2400    1.000000    
      2 Te1   c    0.210837    0.208837    0.208837     -0.2600    1.000000    
      3 Bi    c    0.402389    0.400389    0.400389      0.3800    1.000000    
      4 Bi    c    0.599611    0.599611    0.599611      0.3800    1.000000    
      5 Te1   c    0.791163    0.791163    0.791163     -0.2600    1.000000    
--------------------------------------------------------------------------------



********************************************************************************
*  Input for Configuration =  24                                               *
********************************************************************************

  Formula = Te3Bi2                                                      

  Number of irreducible atoms/shells =       5


  Total number atoms/shells =       5

  Dimensionality = 3               :  Bulk   



  Cartesian lattice vectors (Angstroms) :

       10.268280    0.000000    0.000000
        9.344146    4.257289    0.000000
        9.344146    2.028343    3.743038

  Cell parameters (Angstroms/Degrees):

  a =      10.2683    alpha =  24.4945
  b =      10.2683    beta  =  24.4945
  c =      10.2683    gamma =  24.4945

  Initial cell volume =         163.627070 Angs**3

  Temperature of configuration =  0.000     K 

  Pressure of configuration =         0.000 GPa 

  Fractional coordinates of asymmetric unit :

--------------------------------------------------------------------------------
   No.  Atomic       x           y          z         Charge      Occupancy
        Label      (Frac)      (Frac)     (Frac)        (e)         (Frac)  
--------------------------------------------------------------------------------
      1 Te2   c    0.000000    0.000000    0.000000     -0.2400    1.000000    
      2 Te1   c    0.211837    0.208837    0.208837     -0.2600    1.000000    
      3 Bi    c    0.403389    0.400389    0.400389      0.3800    1.000000    
      4 Bi    c    0.599611    0.599611    0.599611      0.3800    1.000000    
      5 Te1   c    0.791163    0.791163    0.791163     -0.2600    1.000000    
--------------------------------------------------------------------------------



********************************************************************************
*  Input for Configuration =  25                                               *
********************************************************************************

  Formula = Te3Bi2                                                      

  Number of irreducible atoms/shells =       5


  Total number atoms/shells =       5

  Dimensionality = 3               :  Bulk   



  Cartesian lattice vectors (Angstroms) :

       10.268280    0.000000    0.000000
        9.344146    4.257289    0.000000
        9.344146    2.028343    3.743038

  Cell parameters (Angstroms/Degrees):

  a =      10.2683    alpha =  24.4945
  b =      10.2683    beta  =  24.4945
  c =      10.2683    gamma =  24.4945

  Initial cell volume =         163.627070 Angs**3

  Temperature of configuration =  0.000     K 

  Pressure of configuration =         0.000 GPa 

  Fractional coordinates of asymmetric unit :

--------------------------------------------------------------------------------
   No.  Atomic       x           y          z         Charge      Occupancy
        Label      (Frac)      (Frac)     (Frac)        (e)         (Frac)  
--------------------------------------------------------------------------------
      1 Te2   c    0.000000    0.000000    0.000000     -0.2400    1.000000    
      2 Te1   c    0.212837    0.208837    0.208837     -0.2600    1.000000    
      3 Bi    c    0.404389    0.400389    0.400389      0.3800    1.000000    
      4 Bi    c    0.599611    0.599611    0.599611      0.3800    1.000000    
      5 Te1   c    0.791163    0.791163    0.791163     -0.2600    1.000000    
--------------------------------------------------------------------------------



********************************************************************************
*  Input for Configuration =  26                                               *
********************************************************************************

  Formula = Te3Bi2                                                      

  Number of irreducible atoms/shells =       5


  Total number atoms/shells =       5

  Dimensionality = 3               :  Bulk   



  Cartesian lattice vectors (Angstroms) :

       10.268280    0.000000    0.000000
        9.344146    4.257289    0.000000
        9.344146    2.028343    3.743038

  Cell parameters (Angstroms/Degrees):

  a =      10.2683    alpha =  24.4945
  b =      10.2683    beta  =  24.4945
  c =      10.2683    gamma =  24.4945

  Initial cell volume =         163.627070 Angs**3

  Temperature of configuration =  0.000     K 

  Pressure of configuration =         0.000 GPa 

  Fractional coordinates of asymmetric unit :

--------------------------------------------------------------------------------
   No.  Atomic       x           y          z         Charge      Occupancy
        Label      (Frac)      (Frac)     (Frac)        (e)         (Frac)  
--------------------------------------------------------------------------------
      1 Te2   c    0.000000    0.000000    0.000000     -0.2400    1.000000    
      2 Te1   c    0.213837    0.208837    0.208837     -0.2600    1.000000    
      3 Bi    c    0.405389    0.400389    0.400389      0.3800    1.000000    
      4 Bi    c    0.599611    0.599611    0.599611      0.3800    1.000000    
      5 Te1   c    0.791163    0.791163    0.791163     -0.2600    1.000000    
--------------------------------------------------------------------------------



********************************************************************************
*  Input for Configuration =  27                                               *
********************************************************************************

  Formula = Te3Bi2                                                      

  Number of irreducible atoms/shells =       5


  Total number atoms/shells =       5

  Dimensionality = 3               :  Bulk   



  Cartesian lattice vectors (Angstroms) :

       10.268280    0.000000    0.000000
        9.344146    4.257289    0.000000
        9.344146    2.028343    3.743038

  Cell parameters (Angstroms/Degrees):

  a =      10.2683    alpha =  24.4945
  b =      10.2683    beta  =  24.4945
  c =      10.2683    gamma =  24.4945

  Initial cell volume =         163.627070 Angs**3

  Temperature of configuration =  0.000     K 

  Pressure of configuration =         0.000 GPa 

  Fractional coordinates of asymmetric unit :

--------------------------------------------------------------------------------
   No.  Atomic       x           y          z         Charge      Occupancy
        Label      (Frac)      (Frac)     (Frac)        (e)         (Frac)  
--------------------------------------------------------------------------------
      1 Te2   c    0.000000    0.000000    0.000000     -0.2400    1.000000    
      2 Te1   c    0.214837    0.208837    0.208837     -0.2600    1.000000    
      3 Bi    c    0.406389    0.400389    0.400389      0.3800    1.000000    
      4 Bi    c    0.599611    0.599611    0.599611      0.3800    1.000000    
      5 Te1   c    0.791163    0.791163    0.791163     -0.2600    1.000000    
--------------------------------------------------------------------------------



********************************************************************************
*  Input for Configuration =  28                                               *
********************************************************************************

  Formula = Te3Bi2                                                      

  Number of irreducible atoms/shells =       5


  Total number atoms/shells =       5

  Dimensionality = 3               :  Bulk   



  Cartesian lattice vectors (Angstroms) :

       10.268280    0.000000    0.000000
        9.344146    4.257289    0.000000
        9.344146    2.028343    3.743038

  Cell parameters (Angstroms/Degrees):

  a =      10.2683    alpha =  24.4945
  b =      10.2683    beta  =  24.4945
  c =      10.2683    gamma =  24.4945

  Initial cell volume =         163.627070 Angs**3

  Temperature of configuration =  0.000     K 

  Pressure of configuration =         0.000 GPa 

  Fractional coordinates of asymmetric unit :

--------------------------------------------------------------------------------
   No.  Atomic       x           y          z         Charge      Occupancy
        Label      (Frac)      (Frac)     (Frac)        (e)         (Frac)  
--------------------------------------------------------------------------------
      1 Te2   c    0.000000    0.000000    0.000000     -0.2400    1.000000    
      2 Te1   c    0.215837    0.208837    0.208837     -0.2600    1.000000    
      3 Bi    c    0.407389    0.400389    0.400389      0.3800    1.000000    
      4 Bi    c    0.599611    0.599611    0.599611      0.3800    1.000000    
      5 Te1   c    0.791163    0.791163    0.791163     -0.2600    1.000000    
--------------------------------------------------------------------------------



********************************************************************************
*  Input for Configuration =  29                                               *
********************************************************************************

  Formula = Te3Bi2                                                      

  Number of irreducible atoms/shells =       5


  Total number atoms/shells =       5

  Dimensionality = 3               :  Bulk   



  Cartesian lattice vectors (Angstroms) :

       10.268280    0.000000    0.000000
        9.344146    4.257289    0.000000
        9.344146    2.028343    3.743038

  Cell parameters (Angstroms/Degrees):

  a =      10.2683    alpha =  24.4945
  b =      10.2683    beta  =  24.4945
  c =      10.2683    gamma =  24.4945

  Initial cell volume =         163.627070 Angs**3

  Temperature of configuration =  0.000     K 

  Pressure of configuration =         0.000 GPa 

  Fractional coordinates of asymmetric unit :

--------------------------------------------------------------------------------
   No.  Atomic       x           y          z         Charge      Occupancy
        Label      (Frac)      (Frac)     (Frac)        (e)         (Frac)  
--------------------------------------------------------------------------------
      1 Te2   c    0.000000    0.000000    0.000000     -0.2400    1.000000    
      2 Te1   c    0.207837    0.208837    0.208837     -0.2600    1.000000    
      3 Bi    c    0.401389    0.400389    0.400389      0.3800    1.000000    
      4 Bi    c    0.599611    0.599611    0.599611      0.3800    1.000000    
      5 Te1   c    0.791163    0.791163    0.791163     -0.2600    1.000000    
--------------------------------------------------------------------------------



********************************************************************************
*  Input for Configuration =  30                                               *
********************************************************************************

  Formula = Te3Bi2                                                      

  Number of irreducible atoms/shells =       5


  Total number atoms/shells =       5

  Dimensionality = 3               :  Bulk   



  Cartesian lattice vectors (Angstroms) :

       10.268280    0.000000    0.000000
        9.344146    4.257289    0.000000
        9.344146    2.028343    3.743038

  Cell parameters (Angstroms/Degrees):

  a =      10.2683    alpha =  24.4945
  b =      10.2683    beta  =  24.4945
  c =      10.2683    gamma =  24.4945

  Initial cell volume =         163.627070 Angs**3

  Temperature of configuration =  0.000     K 

  Pressure of configuration =         0.000 GPa 

  Fractional coordinates of asymmetric unit :

--------------------------------------------------------------------------------
   No.  Atomic       x           y          z         Charge      Occupancy
        Label      (Frac)      (Frac)     (Frac)        (e)         (Frac)  
--------------------------------------------------------------------------------
      1 Te2   c    0.000000    0.000000    0.000000     -0.2400    1.000000    
      2 Te1   c    0.206837    0.208837    0.208837     -0.2600    1.000000    
      3 Bi    c    0.402389    0.400389    0.400389      0.3800    1.000000    
      4 Bi    c    0.599611    0.599611    0.599611      0.3800    1.000000    
      5 Te1   c    0.791163    0.791163    0.791163     -0.2600    1.000000    
--------------------------------------------------------------------------------



********************************************************************************
*  Input for Configuration =  31                                               *
********************************************************************************

  Formula = Te3Bi2                                                      

  Number of irreducible atoms/shells =       5


  Total number atoms/shells =       5

  Dimensionality = 3               :  Bulk   



  Cartesian lattice vectors (Angstroms) :

       10.268280    0.000000    0.000000
        9.344146    4.257289    0.000000
        9.344146    2.028343    3.743038

  Cell parameters (Angstroms/Degrees):

  a =      10.2683    alpha =  24.4945
  b =      10.2683    beta  =  24.4945
  c =      10.2683    gamma =  24.4945

  Initial cell volume =         163.627070 Angs**3

  Temperature of configuration =  0.000     K 

  Pressure of configuration =         0.000 GPa 

  Fractional coordinates of asymmetric unit :

--------------------------------------------------------------------------------
   No.  Atomic       x           y          z         Charge      Occupancy
        Label      (Frac)      (Frac)     (Frac)        (e)         (Frac)  
--------------------------------------------------------------------------------
      1 Te2   c    0.000000    0.000000    0.000000     -0.2400    1.000000    
      2 Te1   c    0.205837    0.208837    0.208837     -0.2600    1.000000    
      3 Bi    c    0.403389    0.400389    0.400389      0.3800    1.000000    
      4 Bi    c    0.599611    0.599611    0.599611      0.3800    1.000000    
      5 Te1   c    0.791163    0.791163    0.791163     -0.2600    1.000000    
--------------------------------------------------------------------------------



********************************************************************************
*  Input for Configuration =  32                                               *
********************************************************************************

  Formula = Te3Bi2                                                      

  Number of irreducible atoms/shells =       5


  Total number atoms/shells =       5

  Dimensionality = 3               :  Bulk   



  Cartesian lattice vectors (Angstroms) :

       10.268280    0.000000    0.000000
        9.344146    4.257289    0.000000
        9.344146    2.028343    3.743038

  Cell parameters (Angstroms/Degrees):

  a =      10.2683    alpha =  24.4945
  b =      10.2683    beta  =  24.4945
  c =      10.2683    gamma =  24.4945

  Initial cell volume =         163.627070 Angs**3

  Temperature of configuration =  0.000     K 

  Pressure of configuration =         0.000 GPa 

  Fractional coordinates of asymmetric unit :

--------------------------------------------------------------------------------
   No.  Atomic       x           y          z         Charge      Occupancy
        Label      (Frac)      (Frac)     (Frac)        (e)         (Frac)  
--------------------------------------------------------------------------------
      1 Te2   c    0.000000    0.000000    0.000000     -0.2400    1.000000    
      2 Te1   c    0.204837    0.208837    0.208837     -0.2600    1.000000    
      3 Bi    c    0.404389    0.400389    0.400389      0.3800    1.000000    
      4 Bi    c    0.599611    0.599611    0.599611      0.3800    1.000000    
      5 Te1   c    0.791163    0.791163    0.791163     -0.2600    1.000000    
--------------------------------------------------------------------------------



********************************************************************************
*  Input for Configuration =  33                                               *
********************************************************************************

  Formula = Te3Bi2                                                      

  Number of irreducible atoms/shells =       5


  Total number atoms/shells =       5

  Dimensionality = 3               :  Bulk   



  Cartesian lattice vectors (Angstroms) :

       10.268280    0.000000    0.000000
        9.344146    4.257289    0.000000
        9.344146    2.028343    3.743038

  Cell parameters (Angstroms/Degrees):

  a =      10.2683    alpha =  24.4945
  b =      10.2683    beta  =  24.4945
  c =      10.2683    gamma =  24.4945

  Initial cell volume =         163.627070 Angs**3

  Temperature of configuration =  0.000     K 

  Pressure of configuration =         0.000 GPa 

  Fractional coordinates of asymmetric unit :

--------------------------------------------------------------------------------
   No.  Atomic       x           y          z         Charge      Occupancy
        Label      (Frac)      (Frac)     (Frac)        (e)         (Frac)  
--------------------------------------------------------------------------------
      1 Te2   c    0.000000    0.000000    0.000000     -0.2400    1.000000    
      2 Te1   c    0.203837    0.208837    0.208837     -0.2600    1.000000    
      3 Bi    c    0.405389    0.400389    0.400389      0.3800    1.000000    
      4 Bi    c    0.599611    0.599611    0.599611      0.3800    1.000000    
      5 Te1   c    0.791163    0.791163    0.791163     -0.2600    1.000000    
--------------------------------------------------------------------------------



********************************************************************************
*  Input for Configuration =  34                                               *
********************************************************************************

  Formula = Te3Bi2                                                      

  Number of irreducible atoms/shells =       5


  Total number atoms/shells =       5

  Dimensionality = 3               :  Bulk   



  Cartesian lattice vectors (Angstroms) :

       10.268280    0.000000    0.000000
        9.344146    4.257289    0.000000
        9.344146    2.028343    3.743038

  Cell parameters (Angstroms/Degrees):

  a =      10.2683    alpha =  24.4945
  b =      10.2683    beta  =  24.4945
  c =      10.2683    gamma =  24.4945

  Initial cell volume =         163.627070 Angs**3

  Temperature of configuration =  0.000     K 

  Pressure of configuration =         0.000 GPa 

  Fractional coordinates of asymmetric unit :

--------------------------------------------------------------------------------
   No.  Atomic       x           y          z         Charge      Occupancy
        Label      (Frac)      (Frac)     (Frac)        (e)         (Frac)  
--------------------------------------------------------------------------------
      1 Te2   c    0.000000    0.000000    0.000000     -0.2400    1.000000    
      2 Te1   c    0.202837    0.208837    0.208837     -0.2600    1.000000    
      3 Bi    c    0.406389    0.400389    0.400389      0.3800    1.000000    
      4 Bi    c    0.599611    0.599611    0.599611      0.3800    1.000000    
      5 Te1   c    0.791163    0.791163    0.791163     -0.2600    1.000000    
--------------------------------------------------------------------------------



********************************************************************************
*  Input for Configuration =  35                                               *
********************************************************************************

  Formula = Te3Bi2                                                      

  Number of irreducible atoms/shells =       5


  Total number atoms/shells =       5

  Dimensionality = 3               :  Bulk   



  Cartesian lattice vectors (Angstroms) :

       10.268280    0.000000    0.000000
        9.344146    4.257289    0.000000
        9.344146    2.028343    3.743038

  Cell parameters (Angstroms/Degrees):

  a =      10.2683    alpha =  24.4945
  b =      10.2683    beta  =  24.4945
  c =      10.2683    gamma =  24.4945

  Initial cell volume =         163.627070 Angs**3

  Temperature of configuration =  0.000     K 

  Pressure of configuration =         0.000 GPa 

  Fractional coordinates of asymmetric unit :

--------------------------------------------------------------------------------
   No.  Atomic       x           y          z         Charge      Occupancy
        Label      (Frac)      (Frac)     (Frac)        (e)         (Frac)  
--------------------------------------------------------------------------------
      1 Te2   c    0.000000    0.000000    0.000000     -0.2400    1.000000    
      2 Te1   c    0.201837    0.208837    0.208837     -0.2600    1.000000    
      3 Bi    c    0.407389    0.400389    0.400389      0.3800    1.000000    
      4 Bi    c    0.599611    0.599611    0.599611      0.3800    1.000000    
      5 Te1   c    0.791163    0.791163    0.791163     -0.2600    1.000000    
--------------------------------------------------------------------------------



********************************************************************************
*  Input for Configuration =  36                                               *
********************************************************************************

  Formula = Te3Bi2                                                      

  Number of irreducible atoms/shells =       5


  Total number atoms/shells =       5

  Dimensionality = 3               :  Bulk   



  Cartesian lattice vectors (Angstroms) :

       10.268280    0.000000    0.000000
        9.344146    4.257289    0.000000
        9.344146    2.028343    3.743038

  Cell parameters (Angstroms/Degrees):

  a =      10.2683    alpha =  24.4945
  b =      10.2683    beta  =  24.4945
  c =      10.2683    gamma =  24.4945

  Initial cell volume =         163.627070 Angs**3

  Temperature of configuration =  0.000     K 

  Pressure of configuration =         0.000 GPa 

  Fractional coordinates of asymmetric unit :

--------------------------------------------------------------------------------
   No.  Atomic       x           y          z         Charge      Occupancy
        Label      (Frac)      (Frac)     (Frac)        (e)         (Frac)  
--------------------------------------------------------------------------------
      1 Te2   c    0.000000    0.000000    0.000000     -0.2400    1.000000    
      2 Te1   c    0.209837    0.208837    0.208837     -0.2600    1.000000    
      3 Bi    c    0.400389    0.401389    0.400389      0.3800    1.000000    
      4 Bi    c    0.599611    0.599611    0.599611      0.3800    1.000000    
      5 Te1   c    0.791163    0.791163    0.791163     -0.2600    1.000000    
--------------------------------------------------------------------------------



********************************************************************************
*  Input for Configuration =  37                                               *
********************************************************************************

  Formula = Te3Bi2                                                      

  Number of irreducible atoms/shells =       5


  Total number atoms/shells =       5

  Dimensionality = 3               :  Bulk   



  Cartesian lattice vectors (Angstroms) :

       10.268280    0.000000    0.000000
        9.344146    4.257289    0.000000
        9.344146    2.028343    3.743038

  Cell parameters (Angstroms/Degrees):

  a =      10.2683    alpha =  24.4945
  b =      10.2683    beta  =  24.4945
  c =      10.2683    gamma =  24.4945

  Initial cell volume =         163.627070 Angs**3

  Temperature of configuration =  0.000     K 

  Pressure of configuration =         0.000 GPa 

  Fractional coordinates of asymmetric unit :

--------------------------------------------------------------------------------
   No.  Atomic       x           y          z         Charge      Occupancy
        Label      (Frac)      (Frac)     (Frac)        (e)         (Frac)  
--------------------------------------------------------------------------------
      1 Te2   c    0.000000    0.000000    0.000000     -0.2400    1.000000    
      2 Te1   c    0.210837    0.208837    0.208837     -0.2600    1.000000    
      3 Bi    c    0.400389    0.402389    0.400389      0.3800    1.000000    
      4 Bi    c    0.599611    0.599611    0.599611      0.3800    1.000000    
      5 Te1   c    0.791163    0.791163    0.791163     -0.2600    1.000000    
--------------------------------------------------------------------------------



********************************************************************************
*  Input for Configuration =  38                                               *
********************************************************************************

  Formula = Te3Bi2                                                      

  Number of irreducible atoms/shells =       5


  Total number atoms/shells =       5

  Dimensionality = 3               :  Bulk   



  Cartesian lattice vectors (Angstroms) :

       10.268280    0.000000    0.000000
        9.344146    4.257289    0.000000
        9.344146    2.028343    3.743038

  Cell parameters (Angstroms/Degrees):

  a =      10.2683    alpha =  24.4945
  b =      10.2683    beta  =  24.4945
  c =      10.2683    gamma =  24.4945

  Initial cell volume =         163.627070 Angs**3

  Temperature of configuration =  0.000     K 

  Pressure of configuration =         0.000 GPa 

  Fractional coordinates of asymmetric unit :

--------------------------------------------------------------------------------
   No.  Atomic       x           y          z         Charge      Occupancy
        Label      (Frac)      (Frac)     (Frac)        (e)         (Frac)  
--------------------------------------------------------------------------------
      1 Te2   c    0.000000    0.000000    0.000000     -0.2400    1.000000    
      2 Te1   c    0.211837    0.208837    0.208837     -0.2600    1.000000    
      3 Bi    c    0.400389    0.403389    0.400389      0.3800    1.000000    
      4 Bi    c    0.599611    0.599611    0.599611      0.3800    1.000000    
      5 Te1   c    0.791163    0.791163    0.791163     -0.2600    1.000000    
--------------------------------------------------------------------------------



********************************************************************************
*  Input for Configuration =  39                                               *
********************************************************************************

  Formula = Te3Bi2                                                      

  Number of irreducible atoms/shells =       5


  Total number atoms/shells =       5

  Dimensionality = 3               :  Bulk   



  Cartesian lattice vectors (Angstroms) :

       10.268280    0.000000    0.000000
        9.344146    4.257289    0.000000
        9.344146    2.028343    3.743038

  Cell parameters (Angstroms/Degrees):

  a =      10.2683    alpha =  24.4945
  b =      10.2683    beta  =  24.4945
  c =      10.2683    gamma =  24.4945

  Initial cell volume =         163.627070 Angs**3

  Temperature of configuration =  0.000     K 

  Pressure of configuration =         0.000 GPa 

  Fractional coordinates of asymmetric unit :

--------------------------------------------------------------------------------
   No.  Atomic       x           y          z         Charge      Occupancy
        Label      (Frac)      (Frac)     (Frac)        (e)         (Frac)  
--------------------------------------------------------------------------------
      1 Te2   c    0.000000    0.000000    0.000000     -0.2400    1.000000    
      2 Te1   c    0.212837    0.208837    0.208837     -0.2600    1.000000    
      3 Bi    c    0.400389    0.404389    0.400389      0.3800    1.000000    
      4 Bi    c    0.599611    0.599611    0.599611      0.3800    1.000000    
      5 Te1   c    0.791163    0.791163    0.791163     -0.2600    1.000000    
--------------------------------------------------------------------------------



********************************************************************************
*  Input for Configuration =  40                                               *
********************************************************************************

  Formula = Te3Bi2                                                      

  Number of irreducible atoms/shells =       5


  Total number atoms/shells =       5

  Dimensionality = 3               :  Bulk   



  Cartesian lattice vectors (Angstroms) :

       10.268280    0.000000    0.000000
        9.344146    4.257289    0.000000
        9.344146    2.028343    3.743038

  Cell parameters (Angstroms/Degrees):

  a =      10.2683    alpha =  24.4945
  b =      10.2683    beta  =  24.4945
  c =      10.2683    gamma =  24.4945

  Initial cell volume =         163.627070 Angs**3

  Temperature of configuration =  0.000     K 

  Pressure of configuration =         0.000 GPa 

  Fractional coordinates of asymmetric unit :

--------------------------------------------------------------------------------
   No.  Atomic       x           y          z         Charge      Occupancy
        Label      (Frac)      (Frac)     (Frac)        (e)         (Frac)  
--------------------------------------------------------------------------------
      1 Te2   c    0.000000    0.000000    0.000000     -0.2400    1.000000    
      2 Te1   c    0.213837    0.208837    0.208837     -0.2600    1.000000    
      3 Bi    c    0.400389    0.405389    0.400389      0.3800    1.000000    
      4 Bi    c    0.599611    0.599611    0.599611      0.3800    1.000000    
      5 Te1   c    0.791163    0.791163    0.791163     -0.2600    1.000000    
--------------------------------------------------------------------------------



********************************************************************************
*  Input for Configuration =  41                                               *
********************************************************************************

  Formula = Te3Bi2                                                      

  Number of irreducible atoms/shells =       5


  Total number atoms/shells =       5

  Dimensionality = 3               :  Bulk   



  Cartesian lattice vectors (Angstroms) :

       10.268280    0.000000    0.000000
        9.344146    4.257289    0.000000
        9.344146    2.028343    3.743038

  Cell parameters (Angstroms/Degrees):

  a =      10.2683    alpha =  24.4945
  b =      10.2683    beta  =  24.4945
  c =      10.2683    gamma =  24.4945

  Initial cell volume =         163.627070 Angs**3

  Temperature of configuration =  0.000     K 

  Pressure of configuration =         0.000 GPa 

  Fractional coordinates of asymmetric unit :

--------------------------------------------------------------------------------
   No.  Atomic       x           y          z         Charge      Occupancy
        Label      (Frac)      (Frac)     (Frac)        (e)         (Frac)  
--------------------------------------------------------------------------------
      1 Te2   c    0.000000    0.000000    0.000000     -0.2400    1.000000    
      2 Te1   c    0.214837    0.208837    0.208837     -0.2600    1.000000    
      3 Bi    c    0.400389    0.406389    0.400389      0.3800    1.000000    
      4 Bi    c    0.599611    0.599611    0.599611      0.3800    1.000000    
      5 Te1   c    0.791163    0.791163    0.791163     -0.2600    1.000000    
--------------------------------------------------------------------------------



********************************************************************************
*  Input for Configuration =  42                                               *
********************************************************************************

  Formula = Te3Bi2                                                      

  Number of irreducible atoms/shells =       5


  Total number atoms/shells =       5

  Dimensionality = 3               :  Bulk   



  Cartesian lattice vectors (Angstroms) :

       10.268280    0.000000    0.000000
        9.344146    4.257289    0.000000
        9.344146    2.028343    3.743038

  Cell parameters (Angstroms/Degrees):

  a =      10.2683    alpha =  24.4945
  b =      10.2683    beta  =  24.4945
  c =      10.2683    gamma =  24.4945

  Initial cell volume =         163.627070 Angs**3

  Temperature of configuration =  0.000     K 

  Pressure of configuration =         0.000 GPa 

  Fractional coordinates of asymmetric unit :

--------------------------------------------------------------------------------
   No.  Atomic       x           y          z         Charge      Occupancy
        Label      (Frac)      (Frac)     (Frac)        (e)         (Frac)  
--------------------------------------------------------------------------------
      1 Te2   c    0.000000    0.000000    0.000000     -0.2400    1.000000    
      2 Te1   c    0.215837    0.208837    0.208837     -0.2600    1.000000    
      3 Bi    c    0.400389    0.407389    0.400389      0.3800    1.000000    
      4 Bi    c    0.599611    0.599611    0.599611      0.3800    1.000000    
      5 Te1   c    0.791163    0.791163    0.791163     -0.2600    1.000000    
--------------------------------------------------------------------------------



********************************************************************************
*  Input for Configuration =  43                                               *
********************************************************************************

  Formula = Te3Bi2                                                      

  Number of irreducible atoms/shells =       5


  Total number atoms/shells =       5

  Dimensionality = 3               :  Bulk   



  Cartesian lattice vectors (Angstroms) :

       10.268280    0.000000    0.000000
        9.344146    4.257289    0.000000
        9.344146    2.028343    3.743038

  Cell parameters (Angstroms/Degrees):

  a =      10.2683    alpha =  24.4945
  b =      10.2683    beta  =  24.4945
  c =      10.2683    gamma =  24.4945

  Initial cell volume =         163.627070 Angs**3

  Temperature of configuration =  0.000     K 

  Pressure of configuration =         0.000 GPa 

  Fractional coordinates of asymmetric unit :

--------------------------------------------------------------------------------
   No.  Atomic       x           y          z         Charge      Occupancy
        Label      (Frac)      (Frac)     (Frac)        (e)         (Frac)  
--------------------------------------------------------------------------------
      1 Te2   c    0.000000    0.000000    0.000000     -0.2400    1.000000    
      2 Te1   c    0.209837    0.208837    0.208837     -0.2600    1.000000    
      3 Bi    c    0.400389    0.399389    0.400389      0.3800    1.000000    
      4 Bi    c    0.599611    0.599611    0.599611      0.3800    1.000000    
      5 Te1   c    0.791163    0.791163    0.791163     -0.2600    1.000000    
--------------------------------------------------------------------------------



********************************************************************************
*  Input for Configuration =  44                                               *
********************************************************************************

  Formula = Te3Bi2                                                      

  Number of irreducible atoms/shells =       5


  Total number atoms/shells =       5

  Dimensionality = 3               :  Bulk   



  Cartesian lattice vectors (Angstroms) :

       10.268280    0.000000    0.000000
        9.344146    4.257289    0.000000
        9.344146    2.028343    3.743038

  Cell parameters (Angstroms/Degrees):

  a =      10.2683    alpha =  24.4945
  b =      10.2683    beta  =  24.4945
  c =      10.2683    gamma =  24.4945

  Initial cell volume =         163.627070 Angs**3

  Temperature of configuration =  0.000     K 

  Pressure of configuration =         0.000 GPa 

  Fractional coordinates of asymmetric unit :

--------------------------------------------------------------------------------
   No.  Atomic       x           y          z         Charge      Occupancy
        Label      (Frac)      (Frac)     (Frac)        (e)         (Frac)  
--------------------------------------------------------------------------------
      1 Te2   c    0.000000    0.000000    0.000000     -0.2400    1.000000    
      2 Te1   c    0.210837    0.208837    0.208837     -0.2600    1.000000    
      3 Bi    c    0.400389    0.398389    0.400389      0.3800    1.000000    
      4 Bi    c    0.599611    0.599611    0.599611      0.3800    1.000000    
      5 Te1   c    0.791163    0.791163    0.791163     -0.2600    1.000000    
--------------------------------------------------------------------------------



********************************************************************************
*  Input for Configuration =  45                                               *
********************************************************************************

  Formula = Te3Bi2                                                      

  Number of irreducible atoms/shells =       5


  Total number atoms/shells =       5

  Dimensionality = 3               :  Bulk   



  Cartesian lattice vectors (Angstroms) :

       10.268280    0.000000    0.000000
        9.344146    4.257289    0.000000
        9.344146    2.028343    3.743038

  Cell parameters (Angstroms/Degrees):

  a =      10.2683    alpha =  24.4945
  b =      10.2683    beta  =  24.4945
  c =      10.2683    gamma =  24.4945

[...]
*  Output for configuration  55                                                *
********************************************************************************


  Components of energy : 

--------------------------------------------------------------------------------
  Interatomic potentials     =         -10.18652753 eV
  Monopole - monopole (real) =          -0.37003172 eV
  Monopole - monopole (recip)=          -1.24727520 eV
  Monopole - monopole (total)=          -1.61730692 eV
  Energy shift               =          11.15238543 eV
--------------------------------------------------------------------------------
  Total lattice energy       =          -0.65144901 eV
--------------------------------------------------------------------------------
  Total lattice energy       =             -62.8549 kJ/(mole unit cells)
--------------------------------------------------------------------------------

********************************************************************************
*  Output for configuration  56                                                *
********************************************************************************


  Components of energy : 

--------------------------------------------------------------------------------
  Interatomic potentials     =         -10.17570630 eV
  Monopole - monopole (real) =          -0.37120472 eV
  Monopole - monopole (recip)=          -1.25117898 eV
  Monopole - monopole (total)=          -1.62238370 eV
  Energy shift               =          11.15238543 eV
--------------------------------------------------------------------------------
  Total lattice energy       =          -0.64570457 eV
--------------------------------------------------------------------------------
  Total lattice energy       =             -62.3006 kJ/(mole unit cells)
--------------------------------------------------------------------------------

********************************************************************************
*  Output for configuration  57                                                *
********************************************************************************


  Components of energy : 

--------------------------------------------------------------------------------
  Interatomic potentials     =         -10.16369554 eV
  Monopole - monopole (real) =          -0.37238741 eV
  Monopole - monopole (recip)=          -1.25503931 eV
  Monopole - monopole (total)=          -1.62742671 eV
  Energy shift               =          11.15238543 eV
--------------------------------------------------------------------------------
  Total lattice energy       =          -0.63873682 eV
--------------------------------------------------------------------------------
  Total lattice energy       =             -61.6283 kJ/(mole unit cells)
--------------------------------------------------------------------------------

********************************************************************************
*  Output for configuration  58                                                *
********************************************************************************


  Components of energy : 

--------------------------------------------------------------------------------
  Interatomic potentials     =         -10.15049554 eV
  Monopole - monopole (real) =          -0.37357993 eV
  Monopole - monopole (recip)=          -1.25885587 eV
  Monopole - monopole (total)=          -1.63243580 eV
  Energy shift               =          11.15238543 eV
--------------------------------------------------------------------------------
  Total lattice energy       =          -0.63054591 eV
--------------------------------------------------------------------------------
  Total lattice energy       =             -60.8380 kJ/(mole unit cells)
--------------------------------------------------------------------------------

********************************************************************************
*  Output for configuration  59                                                *
********************************************************************************


  Components of energy : 

--------------------------------------------------------------------------------
  Interatomic potentials     =         -10.13610633 eV
  Monopole - monopole (real) =          -0.37478243 eV
  Monopole - monopole (recip)=          -1.26262836 eV
  Monopole - monopole (total)=          -1.63741080 eV
  Energy shift               =          11.15238543 eV
--------------------------------------------------------------------------------
  Total lattice energy       =          -0.62113169 eV
--------------------------------------------------------------------------------
  Total lattice energy       =             -59.9297 kJ/(mole unit cells)
--------------------------------------------------------------------------------

********************************************************************************
*  Output for configuration  60                                                *
********************************************************************************


  Components of energy : 

--------------------------------------------------------------------------------
  Interatomic potentials     =         -10.20060558 eV
  Monopole - monopole (real) =          -0.36697693 eV
  Monopole - monopole (recip)=          -1.23695337 eV
  Monopole - monopole (total)=          -1.60393030 eV
  Energy shift               =          11.15238543 eV
--------------------------------------------------------------------------------
  Total lattice energy       =          -0.65215044 eV
--------------------------------------------------------------------------------
  Total lattice energy       =             -62.9225 kJ/(mole unit cells)
--------------------------------------------------------------------------------

********************************************************************************
*  Output for configuration  61                                                *
********************************************************************************


  Components of energy : 

--------------------------------------------------------------------------------
  Interatomic potentials     =         -10.19526943 eV
  Monopole - monopole (real) =          -0.36510493 eV
  Monopole - monopole (recip)=          -1.23064348 eV
  Monopole - monopole (total)=          -1.59574840 eV
  Energy shift               =          11.15238543 eV
--------------------------------------------------------------------------------
  Total lattice energy       =          -0.63863240 eV
--------------------------------------------------------------------------------
  Total lattice energy       =             -61.6183 kJ/(mole unit cells)
--------------------------------------------------------------------------------

********************************************************************************
*  Output for configuration  62                                                *
********************************************************************************


  Components of energy : 

--------------------------------------------------------------------------------
  Interatomic potentials     =         -10.18086447 eV
  Monopole - monopole (real) =          -0.36325331 eV
  Monopole - monopole (recip)=          -1.22440233 eV
  Monopole - monopole (total)=          -1.58765564 eV
  Energy shift               =          11.15238543 eV
--------------------------------------------------------------------------------
  Total lattice energy       =          -0.61613468 eV
--------------------------------------------------------------------------------
  Total lattice energy       =             -59.4476 kJ/(mole unit cells)
--------------------------------------------------------------------------------

********************************************************************************
*  Output for configuration  63                                                *
********************************************************************************


  Components of energy : 

--------------------------------------------------------------------------------
  Interatomic potentials     =         -10.18118262 eV
  Monopole - monopole (real) =          -0.37077904 eV
  Monopole - monopole (recip)=          -1.24976896 eV
  Monopole - monopole (total)=          -1.62054800 eV
  Energy shift               =          11.15238543 eV
--------------------------------------------------------------------------------
  Total lattice energy       =          -0.64934519 eV
--------------------------------------------------------------------------------
  Total lattice energy       =             -62.6519 kJ/(mole unit cells)
--------------------------------------------------------------------------------

********************************************************************************
*  Output for configuration  64                                                *
********************************************************************************


  Components of energy : 

--------------------------------------------------------------------------------
  Interatomic potentials     =         -10.15488015 eV
  Monopole - monopole (real) =          -0.37270975 eV
  Monopole - monopole (recip)=          -1.25627672 eV
  Monopole - monopole (total)=          -1.62898647 eV
  Energy shift               =          11.15238543 eV
--------------------------------------------------------------------------------
  Total lattice energy       =          -0.63148119 eV
--------------------------------------------------------------------------------
  Total lattice energy       =             -60.9283 kJ/(mole unit cells)
--------------------------------------------------------------------------------

********************************************************************************
*  Output for configuration  65                                                *
********************************************************************************


  Components of energy : 

--------------------------------------------------------------------------------
  Interatomic potentials     =         -10.11639984 eV
  Monopole - monopole (real) =          -0.37466068 eV
  Monopole - monopole (recip)=          -1.26285266 eV
  Monopole - monopole (total)=          -1.63751335 eV
  Energy shift               =          11.15238543 eV
--------------------------------------------------------------------------------
  Total lattice energy       =          -0.60152776 eV
--------------------------------------------------------------------------------
  Total lattice energy       =             -58.0382 kJ/(mole unit cells)
--------------------------------------------------------------------------------

********************************************************************************
*  Output for configuration  66                                                *
********************************************************************************


  Components of energy : 

--------------------------------------------------------------------------------
  Interatomic potentials     =         -10.19787094 eV
  Monopole - monopole (real) =          -0.36848712 eV
  Monopole - monopole (recip)=          -1.24204371 eV
  Monopole - monopole (total)=          -1.61053084 eV
  Energy shift               =          11.15238543 eV
--------------------------------------------------------------------------------
  Total lattice energy       =          -0.65601634 eV
--------------------------------------------------------------------------------
  Total lattice energy       =             -63.2955 kJ/(mole unit cells)
--------------------------------------------------------------------------------

********************************************************************************
*  Output for configuration  67                                                *
********************************************************************************


  Components of energy : 

--------------------------------------------------------------------------------
  Interatomic potentials     =         -10.19915318 eV
  Monopole - monopole (real) =          -0.36811110 eV
  Monopole - monopole (recip)=          -1.24077625 eV
  Monopole - monopole (total)=          -1.60888734 eV
  Energy shift               =          11.15238543 eV
--------------------------------------------------------------------------------
  Total lattice energy       =          -0.65565509 eV
--------------------------------------------------------------------------------
  Total lattice energy       =             -63.2607 kJ/(mole unit cells)
--------------------------------------------------------------------------------

********************************************************************************
*  Output for configuration  68                                                *
********************************************************************************


  Components of energy : 

--------------------------------------------------------------------------------
  Interatomic potentials     =         -10.20003947 eV
  Monopole - monopole (real) =          -0.36773226 eV
  Monopole - monopole (recip)=          -1.23949933 eV
  Monopole - monopole (total)=          -1.60723159 eV
  Energy shift               =          11.15238543 eV
--------------------------------------------------------------------------------
  Total lattice energy       =          -0.65488562 eV
--------------------------------------------------------------------------------
  Total lattice energy       =             -63.1865 kJ/(mole unit cells)
--------------------------------------------------------------------------------

********************************************************************************
*  Output for configuration  69                                                *
********************************************************************************


  Components of energy : 

--------------------------------------------------------------------------------
  Interatomic potentials     =         -10.20052162 eV
  Monopole - monopole (real) =          -0.36735421 eV
  Monopole - monopole (recip)=          -1.23822504 eV
  Monopole - monopole (total)=          -1.60557925 eV
  Energy shift               =          11.15238543 eV
--------------------------------------------------------------------------------
  Total lattice energy       =          -0.65371544 eV
--------------------------------------------------------------------------------
  Total lattice energy       =             -63.0735 kJ/(mole unit cells)
--------------------------------------------------------------------------------

********************************************************************************
*  Output for configuration  70                                                *
********************************************************************************


  Components of energy : 

--------------------------------------------------------------------------------
  Interatomic potentials     =         -10.19403131 eV
  Monopole - monopole (real) =          -0.36924869 eV
  Monopole - monopole (recip)=          -1.24461069 eV
  Monopole - monopole (total)=          -1.61385938 eV
  Energy shift               =          11.15238543 eV
--------------------------------------------------------------------------------
  Total lattice energy       =          -0.65550526 eV
--------------------------------------------------------------------------------
  Total lattice energy       =             -63.2462 kJ/(mole unit cells)
--------------------------------------------------------------------------------

********************************************************************************
*  Output for configuration  71                                                *
********************************************************************************


  Components of energy : 

--------------------------------------------------------------------------------
  Interatomic potentials     =         -10.19147180 eV
  Monopole - monopole (real) =          -0.36963066 eV
  Monopole - monopole (recip)=          -1.24589817 eV
  Monopole - monopole (total)=          -1.61552882 eV
  Energy shift               =          11.15238543 eV
--------------------------------------------------------------------------------
  Total lattice energy       =          -0.65461519 eV
--------------------------------------------------------------------------------
  Total lattice energy       =             -63.1604 kJ/(mole unit cells)
--------------------------------------------------------------------------------

********************************************************************************
*  Output for configuration  72                                                *
********************************************************************************


  Components of energy : 

--------------------------------------------------------------------------------
  Interatomic potentials     =         -10.18847742 eV
  Monopole - monopole (real) =          -0.37001341 eV
  Monopole - monopole (recip)=          -1.24718831 eV
  Monopole - monopole (total)=          -1.61720172 eV
  Energy shift               =          11.15238543 eV
--------------------------------------------------------------------------------
  Total lattice energy       =          -0.65329371 eV
--------------------------------------------------------------------------------
  Total lattice energy       =             -63.0329 kJ/(mole unit cells)
--------------------------------------------------------------------------------

********************************************************************************
*  Output for configuration  73                                                *
********************************************************************************


  Components of energy : 

--------------------------------------------------------------------------------
  Interatomic potentials     =         -10.18504177 eV
  Monopole - monopole (real) =          -0.37039696 eV
  Monopole - monopole (recip)=          -1.24848112 eV
  Monopole - monopole (total)=          -1.61887808 eV
  Energy shift               =          11.15238543 eV
--------------------------------------------------------------------------------
  Total lattice energy       =          -0.65153442 eV
--------------------------------------------------------------------------------
  Total lattice energy       =             -62.8631 kJ/(mole unit cells)
--------------------------------------------------------------------------------

  Peak dynamic memory used =       1.04 MB 


  Timing analysis for GULP :

--------------------------------------------------------------------------------
  Task / Subroutine                                          Time (Seconds)
--------------------------------------------------------------------------------
  Calculation of reciprocal space energy and derivatives         22.2294
  Calculation of real space energy and derivatives              176.9110
  Sum of squares for fitting                                    127.5760
  Global summation overhead                                       0.1320
--------------------------------------------------------------------------------
  Total CPU time                                                210.2211
--------------------------------------------------------------------------------


  Dump file written as bi2te3.res                                              


  Job Finished at 15:40.13  2nd June       2010                               

